   4   4   0   0
  0.4439676E+02  0.2897865E-09  0.2897865E-09  0.2114730E-08  0.2500000E-15
  1.000000000000000E-004
  CAR 
 Slab Fe 1x1 4Layers                     
      8.91546860     -9.37236969  301      0.41524145      1.00000000
     -9.372  0.0000E+00  0.0000E+00  0.0000E+00  0.0000E+00
     -9.311  0.0000E+00  0.0000E+00  0.0000E+00  0.0000E+00
     -9.250  0.0000E+00  0.0000E+00  0.0000E+00  0.0000E+00
     -9.189  0.0000E+00  0.0000E+00  0.0000E+00  0.0000E+00
     -9.129  0.0000E+00  0.0000E+00  0.0000E+00  0.0000E+00
     -9.068  0.0000E+00  0.0000E+00  0.0000E+00  0.0000E+00
     -9.007  0.0000E+00  0.0000E+00  0.0000E+00  0.0000E+00
     -8.946  0.0000E+00  0.0000E+00  0.0000E+00  0.0000E+00
     -8.885  0.0000E+00  0.0000E+00  0.0000E+00  0.0000E+00
     -8.824  0.6054E-20  0.6054E-20  0.3690E-21  0.3690E-21
     -8.763  0.1643E-14  0.1643E-14  0.1001E-15  0.1001E-15
     -8.702  0.2490E-10  0.2490E-10  0.1518E-11  0.1518E-11
     -8.641  0.2180E-07  0.2180E-07  0.1330E-08  0.1330E-08
     -8.580  0.1302E-05  0.1302E-05  0.8072E-07  0.8072E-07
     -8.519  0.1035E-04  0.1035E-04  0.7117E-06  0.7117E-06
     -8.458  0.2884E-04  0.2884E-04  0.2470E-05  0.2470E-05
     -8.397  0.3127E-04  0.3127E-04  0.4376E-05  0.4376E-05
     -8.336  0.1559E-04  0.1559E-04  0.5327E-05  0.5327E-05
     -8.275  0.3349E-04  0.3349E-04  0.7368E-05  0.7368E-05
     -8.214  0.5240E-04  0.5240E-04  0.1056E-04  0.1056E-04
     -8.153  0.1720E-04  0.1720E-04  0.1161E-04  0.1161E-04
     -8.092  0.7497E-05  0.7497E-05  0.1207E-04  0.1207E-04
     -8.031  0.3447E-04  0.3447E-04  0.1417E-04  0.1417E-04
     -7.970  0.5065E-04  0.5065E-04  0.1726E-04  0.1726E-04
     -7.909  0.4564E-04  0.4564E-04  0.2004E-04  0.2004E-04
     -7.848  0.8869E-05  0.8869E-05  0.2058E-04  0.2058E-04
     -7.787  0.2546E-04  0.2546E-04  0.2213E-04  0.2213E-04
     -7.726  0.4035E-04  0.4035E-04  0.2459E-04  0.2459E-04
     -7.666  0.1718E-04  0.1718E-04  0.2564E-04  0.2564E-04
     -7.605  0.4243E-04  0.4243E-04  0.2823E-04  0.2823E-04
     -7.544  0.4952E-04  0.4952E-04  0.3124E-04  0.3124E-04
     -7.483  0.2947E-04  0.2947E-04  0.3304E-04  0.3304E-04
     -7.422  0.3851E-04  0.3851E-04  0.3539E-04  0.3539E-04
     -7.361  0.4061E-04  0.4061E-04  0.3786E-04  0.3786E-04
     -7.300  0.6947E-05  0.6947E-05  0.3829E-04  0.3829E-04
     -7.239  0.1708E-04  0.1708E-04  0.3933E-04  0.3933E-04
     -7.178  0.5665E-04  0.5665E-04  0.4278E-04  0.4278E-04
     -7.117  0.8058E-04  0.8058E-04  0.4769E-04  0.4769E-04
     -7.056  0.3052E-04  0.3052E-04  0.4955E-04  0.4955E-04
     -6.995  0.4594E-04  0.4594E-04  0.5235E-04  0.5235E-04
     -6.934  0.5773E-04  0.5773E-04  0.5587E-04  0.5587E-04
     -6.873  0.4143E-04  0.4143E-04  0.5840E-04  0.5840E-04
     -6.812  0.6691E-04  0.6691E-04  0.6248E-04  0.6248E-04
     -6.751  0.1503E-03  0.1503E-03  0.7164E-04  0.7164E-04
     -6.690  0.1050E-03  0.1050E-03  0.7804E-04  0.7804E-04
     -6.629  0.4269E-04  0.4269E-04  0.8065E-04  0.8065E-04
     -6.568  0.1058E-03  0.1058E-03  0.8710E-04  0.8710E-04
     -6.507  0.9418E-04  0.9418E-04  0.9284E-04  0.9284E-04
     -6.446  0.9169E-04  0.9169E-04  0.9843E-04  0.9843E-04
     -6.385  0.1490E-03  0.1490E-03  0.1075E-03  0.1075E-03
     -6.324  0.1982E-03  0.1982E-03  0.1196E-03  0.1196E-03
     -6.263  0.2078E-03  0.2078E-03  0.1323E-03  0.1323E-03
     -6.202  0.2960E-03  0.2960E-03  0.1503E-03  0.1503E-03
     -6.142  0.3625E-03  0.3625E-03  0.1724E-03  0.1724E-03
     -6.081  0.2870E-03  0.2870E-03  0.1899E-03  0.1899E-03
     -6.020  0.3027E-03  0.3027E-03  0.2083E-03  0.2083E-03
     -5.959  0.2533E-03  0.2533E-03  0.2238E-03  0.2238E-03
     -5.898  0.2923E-03  0.2923E-03  0.2416E-03  0.2416E-03
     -5.837  0.4279E-03  0.4279E-03  0.2677E-03  0.2677E-03
     -5.776  0.4609E-03  0.4609E-03  0.2958E-03  0.2958E-03
     -5.715  0.4722E-03  0.4722E-03  0.3246E-03  0.3246E-03
     -5.654  0.6531E-03  0.6531E-03  0.3644E-03  0.3644E-03
     -5.593  0.6378E-03  0.6378E-03  0.4033E-03  0.4033E-03
     -5.532  0.6442E-03  0.6442E-03  0.4425E-03  0.4425E-03
     -5.471  0.6266E-03  0.6266E-03  0.4807E-03  0.4807E-03
     -5.410  0.7167E-03  0.7167E-03  0.5244E-03  0.5244E-03
     -5.349  0.7734E-03  0.7734E-03  0.5716E-03  0.5716E-03
     -5.288  0.5347E-03  0.5347E-03  0.6042E-03  0.6042E-03
     -5.227  0.6746E-03  0.6746E-03  0.6453E-03  0.6453E-03
     -5.166  0.8141E-03  0.8141E-03  0.6949E-03  0.6949E-03
     -5.105  0.7181E-03  0.7181E-03  0.7387E-03  0.7387E-03
     -5.044  0.5725E-03  0.5725E-03  0.7736E-03  0.7736E-03
     -4.983  0.5286E-03  0.5286E-03  0.8058E-03  0.8058E-03
     -4.922  0.4792E-03  0.4792E-03  0.8350E-03  0.8350E-03
     -4.861  0.4710E-03  0.4710E-03  0.8637E-03  0.8637E-03
     -4.800  0.5739E-03  0.5739E-03  0.8987E-03  0.8987E-03
     -4.739  0.7661E-03  0.7661E-03  0.9454E-03  0.9454E-03
     -4.678  0.5006E-03  0.5006E-03  0.9759E-03  0.9759E-03
     -4.618  0.4802E-03  0.4802E-03  0.1005E-02  0.1005E-02
     -4.557  0.7342E-03  0.7342E-03  0.1050E-02  0.1050E-02
     -4.496  0.7876E-03  0.7876E-03  0.1098E-02  0.1098E-02
     -4.435  0.7731E-03  0.7731E-03  0.1145E-02  0.1145E-02
     -4.374  0.8818E-03  0.8818E-03  0.1199E-02  0.1199E-02
     -4.313  0.6673E-03  0.6673E-03  0.1240E-02  0.1240E-02
     -4.252  0.6480E-03  0.6480E-03  0.1279E-02  0.1279E-02
     -4.191  0.6037E-03  0.6037E-03  0.1316E-02  0.1316E-02
     -4.130  0.9547E-03  0.9547E-03  0.1374E-02  0.1374E-02
     -4.069  0.1001E-02  0.1001E-02  0.1435E-02  0.1435E-02
     -4.008  0.8191E-03  0.8191E-03  0.1485E-02  0.1485E-02
     -3.947  0.8730E-03  0.8730E-03  0.1538E-02  0.1538E-02
     -3.886  0.5818E-03  0.5818E-03  0.1574E-02  0.1574E-02
     -3.825  0.7502E-03  0.7502E-03  0.1619E-02  0.1619E-02
     -3.764  0.1101E-02  0.1101E-02  0.1687E-02  0.1687E-02
     -3.703  0.1421E-02  0.1421E-02  0.1773E-02  0.1773E-02
     -3.642  0.1466E-02  0.1466E-02  0.1863E-02  0.1863E-02
     -3.581  0.1024E-02  0.1024E-02  0.1925E-02  0.1925E-02
     -3.520  0.7950E-03  0.7950E-03  0.1973E-02  0.1973E-02
     -3.459  0.8905E-03  0.8905E-03  0.2028E-02  0.2028E-02
     -3.398  0.1057E-02  0.1057E-02  0.2092E-02  0.2092E-02
     -3.337  0.8047E-03  0.8047E-03  0.2141E-02  0.2141E-02
     -3.276  0.6066E-03  0.6066E-03  0.2178E-02  0.2178E-02
     -3.215  0.4752E-03  0.4752E-03  0.2207E-02  0.2207E-02
     -3.155  0.5984E-03  0.5984E-03  0.2244E-02  0.2244E-02
     -3.094  0.8488E-03  0.8488E-03  0.2295E-02  0.2295E-02
     -3.033  0.8066E-03  0.8066E-03  0.2345E-02  0.2345E-02
     -2.972  0.9500E-03  0.9500E-03  0.2402E-02  0.2402E-02
     -2.911  0.9015E-03  0.9015E-03  0.2457E-02  0.2457E-02
     -2.850  0.1107E-02  0.1107E-02  0.2525E-02  0.2525E-02
     -2.789  0.1330E-02  0.1330E-02  0.2606E-02  0.2606E-02
     -2.728  0.1293E-02  0.1293E-02  0.2685E-02  0.2685E-02
     -2.667  0.9105E-03  0.9105E-03  0.2740E-02  0.2740E-02
     -2.606  0.6776E-03  0.6776E-03  0.2782E-02  0.2782E-02
     -2.545  0.9250E-03  0.9250E-03  0.2838E-02  0.2838E-02
     -2.484  0.7299E-03  0.7299E-03  0.2882E-02  0.2882E-02
     -2.423  0.7191E-03  0.7191E-03  0.2926E-02  0.2926E-02
     -2.362  0.8219E-03  0.8219E-03  0.2976E-02  0.2976E-02
     -2.301  0.1000E-02  0.1000E-02  0.3037E-02  0.3037E-02
     -2.240  0.1256E-02  0.1256E-02  0.3114E-02  0.3114E-02
     -2.179  0.1176E-02  0.1176E-02  0.3186E-02  0.3186E-02
     -2.118  0.9579E-03  0.9579E-03  0.3244E-02  0.3244E-02
     -2.057  0.9781E-03  0.9781E-03  0.3304E-02  0.3304E-02
     -1.996  0.8821E-03  0.8821E-03  0.3357E-02  0.3357E-02
     -1.935  0.9775E-03  0.9775E-03  0.3417E-02  0.3417E-02
     -1.874  0.1297E-02  0.1297E-02  0.3496E-02  0.3496E-02
     -1.813  0.1265E-02  0.1265E-02  0.3573E-02  0.3573E-02
     -1.752  0.1329E-02  0.1329E-02  0.3654E-02  0.3654E-02
     -1.691  0.1141E-02  0.1141E-02  0.3724E-02  0.3724E-02
     -1.631  0.8406E-03  0.8406E-03  0.3775E-02  0.3775E-02
     -1.570  0.9257E-03  0.9257E-03  0.3831E-02  0.3831E-02
     -1.509  0.1025E-02  0.1025E-02  0.3894E-02  0.3894E-02
     -1.448  0.1083E-02  0.1083E-02  0.3960E-02  0.3960E-02
     -1.387  0.1172E-02  0.1172E-02  0.4031E-02  0.4031E-02
     -1.326  0.1188E-02  0.1188E-02  0.4104E-02  0.4104E-02
     -1.265  0.7970E-03  0.7970E-03  0.4152E-02  0.4152E-02
     -1.204  0.3279E-03  0.3279E-03  0.4172E-02  0.4172E-02
     -1.143  0.3111E-03  0.3111E-03  0.4191E-02  0.4191E-02
     -1.082  0.2637E-03  0.2637E-03  0.4207E-02  0.4207E-02
     -1.021  0.1202E-03  0.1202E-03  0.4215E-02  0.4215E-02
     -0.960  0.1093E-03  0.1093E-03  0.4221E-02  0.4221E-02
     -0.899  0.2193E-03  0.2193E-03  0.4235E-02  0.4235E-02
     -0.838  0.1803E-03  0.1803E-03  0.4246E-02  0.4246E-02
     -0.777  0.1532E-03  0.1532E-03  0.4255E-02  0.4255E-02
     -0.716  0.1708E-03  0.1708E-03  0.4266E-02  0.4266E-02
     -0.655  0.2128E-03  0.2128E-03  0.4279E-02  0.4279E-02
     -0.594  0.1380E-03  0.1380E-03  0.4287E-02  0.4287E-02
     -0.533  0.6965E-04  0.6965E-04  0.4291E-02  0.4291E-02
     -0.472  0.7510E-04  0.7510E-04  0.4296E-02  0.4296E-02
     -0.411  0.1014E-03  0.1014E-03  0.4302E-02  0.4302E-02
     -0.350  0.1024E-03  0.1024E-03  0.4308E-02  0.4308E-02
     -0.289  0.1742E-03  0.1742E-03  0.4319E-02  0.4319E-02
     -0.228  0.1206E-03  0.1206E-03  0.4326E-02  0.4326E-02
     -0.167  0.3334E-04  0.3334E-04  0.4328E-02  0.4328E-02
     -0.107  0.5277E-04  0.5277E-04  0.4331E-02  0.4331E-02
     -0.046  0.9329E-04  0.9329E-04  0.4337E-02  0.4337E-02
      0.015  0.1759E-03  0.1759E-03  0.4348E-02  0.4348E-02
      0.076  0.1495E-03  0.1495E-03  0.4357E-02  0.4357E-02
      0.137  0.1824E-03  0.1824E-03  0.4368E-02  0.4368E-02
      0.198  0.1167E-03  0.1167E-03  0.4375E-02  0.4375E-02
      0.259  0.1029E-03  0.1029E-03  0.4381E-02  0.4381E-02
      0.320  0.1060E-03  0.1060E-03  0.4388E-02  0.4388E-02
      0.381  0.1217E-03  0.1217E-03  0.4395E-02  0.4395E-02
      0.442  0.1296E-03  0.1296E-03  0.4403E-02  0.4403E-02
      0.503  0.1376E-03  0.1376E-03  0.4412E-02  0.4412E-02
      0.564  0.1239E-03  0.1239E-03  0.4419E-02  0.4419E-02
      0.625  0.1131E-03  0.1131E-03  0.4426E-02  0.4426E-02
      0.686  0.1075E-03  0.1075E-03  0.4433E-02  0.4433E-02
      0.747  0.8502E-04  0.8502E-04  0.4438E-02  0.4438E-02
      0.808  0.8272E-04  0.8272E-04  0.4443E-02  0.4443E-02
      0.869  0.1139E-03  0.1139E-03  0.4450E-02  0.4450E-02
      0.930  0.1207E-03  0.1207E-03  0.4457E-02  0.4457E-02
      0.991  0.2116E-03  0.2116E-03  0.4470E-02  0.4470E-02
      1.052  0.2238E-03  0.2238E-03  0.4484E-02  0.4484E-02
      1.113  0.1745E-03  0.1745E-03  0.4494E-02  0.4494E-02
      1.174  0.8414E-04  0.8414E-04  0.4499E-02  0.4499E-02
      1.235  0.9026E-04  0.9026E-04  0.4505E-02  0.4505E-02
      1.296  0.9769E-04  0.9769E-04  0.4511E-02  0.4511E-02
      1.356  0.1197E-03  0.1197E-03  0.4518E-02  0.4518E-02
      1.417  0.1370E-03  0.1370E-03  0.4527E-02  0.4527E-02
      1.478  0.1666E-03  0.1666E-03  0.4537E-02  0.4537E-02
      1.539  0.1355E-03  0.1355E-03  0.4545E-02  0.4545E-02
      1.600  0.1064E-03  0.1064E-03  0.4551E-02  0.4551E-02
      1.661  0.9240E-04  0.9240E-04  0.4557E-02  0.4557E-02
      1.722  0.4499E-04  0.4499E-04  0.4560E-02  0.4560E-02
      1.783  0.6077E-04  0.6077E-04  0.4564E-02  0.4564E-02
      1.844  0.9333E-04  0.9333E-04  0.4569E-02  0.4569E-02
      1.905  0.1974E-03  0.1974E-03  0.4581E-02  0.4581E-02
      1.966  0.2032E-03  0.2032E-03  0.4594E-02  0.4594E-02
      2.027  0.1272E-03  0.1272E-03  0.4601E-02  0.4601E-02
      2.088  0.1184E-03  0.1184E-03  0.4609E-02  0.4609E-02
      2.149  0.1645E-03  0.1645E-03  0.4619E-02  0.4619E-02
      2.210  0.1411E-03  0.1411E-03  0.4627E-02  0.4627E-02
      2.271  0.9002E-04  0.9002E-04  0.4633E-02  0.4633E-02
      2.332  0.7097E-04  0.7097E-04  0.4637E-02  0.4637E-02
      2.393  0.1177E-03  0.1177E-03  0.4644E-02  0.4644E-02
      2.454  0.1492E-03  0.1492E-03  0.4653E-02  0.4653E-02
      2.515  0.1455E-03  0.1455E-03  0.4662E-02  0.4662E-02
      2.576  0.1260E-03  0.1260E-03  0.4670E-02  0.4670E-02
      2.637  0.1150E-03  0.1150E-03  0.4677E-02  0.4677E-02
      2.698  0.1747E-03  0.1747E-03  0.4688E-02  0.4688E-02
      2.759  0.1845E-03  0.1845E-03  0.4699E-02  0.4699E-02
      2.820  0.1364E-03  0.1364E-03  0.4707E-02  0.4707E-02
      2.880  0.1611E-03  0.1611E-03  0.4717E-02  0.4717E-02
      2.941  0.1472E-03  0.1472E-03  0.4726E-02  0.4726E-02
      3.002  0.1523E-03  0.1523E-03  0.4735E-02  0.4735E-02
      3.063  0.2092E-03  0.2092E-03  0.4748E-02  0.4748E-02
      3.124  0.2417E-03  0.2417E-03  0.4763E-02  0.4763E-02
      3.185  0.2565E-03  0.2565E-03  0.4778E-02  0.4778E-02
      3.246  0.2088E-03  0.2088E-03  0.4791E-02  0.4791E-02
      3.307  0.1027E-03  0.1027E-03  0.4797E-02  0.4797E-02
      3.368  0.7578E-04  0.7578E-04  0.4802E-02  0.4802E-02
      3.429  0.1770E-03  0.1770E-03  0.4813E-02  0.4813E-02
      3.490  0.2964E-03  0.2964E-03  0.4831E-02  0.4831E-02
      3.551  0.1497E-03  0.1497E-03  0.4840E-02  0.4840E-02
      3.612  0.7888E-04  0.7888E-04  0.4845E-02  0.4845E-02
      3.673  0.1385E-03  0.1385E-03  0.4853E-02  0.4853E-02
      3.734  0.2228E-03  0.2228E-03  0.4867E-02  0.4867E-02
      3.795  0.2117E-03  0.2117E-03  0.4880E-02  0.4880E-02
      3.856  0.1174E-03  0.1174E-03  0.4887E-02  0.4887E-02
      3.917  0.9887E-04  0.9887E-04  0.4893E-02  0.4893E-02
      3.978  0.7828E-04  0.7828E-04  0.4898E-02  0.4898E-02
      4.039  0.7506E-04  0.7506E-04  0.4902E-02  0.4902E-02
      4.100  0.1403E-03  0.1403E-03  0.4911E-02  0.4911E-02
      4.161  0.8739E-04  0.8739E-04  0.4916E-02  0.4916E-02
      4.222  0.8044E-04  0.8044E-04  0.4921E-02  0.4921E-02
      4.283  0.1209E-03  0.1209E-03  0.4928E-02  0.4928E-02
      4.344  0.8724E-04  0.8724E-04  0.4934E-02  0.4934E-02
      4.404  0.7615E-04  0.7615E-04  0.4938E-02  0.4938E-02
      4.465  0.1644E-03  0.1644E-03  0.4948E-02  0.4948E-02
      4.526  0.2397E-03  0.2397E-03  0.4963E-02  0.4963E-02
      4.587  0.2146E-03  0.2146E-03  0.4976E-02  0.4976E-02
      4.648  0.8953E-04  0.8953E-04  0.4981E-02  0.4981E-02
      4.709  0.4302E-04  0.4302E-04  0.4984E-02  0.4984E-02
      4.770  0.8856E-04  0.8856E-04  0.4989E-02  0.4989E-02
      4.831  0.6112E-04  0.6112E-04  0.4993E-02  0.4993E-02
      4.892  0.5831E-04  0.5831E-04  0.4997E-02  0.4997E-02
      4.953  0.1747E-03  0.1747E-03  0.5007E-02  0.5007E-02
      5.014  0.1080E-03  0.1080E-03  0.5014E-02  0.5014E-02
      5.075  0.6671E-04  0.6671E-04  0.5018E-02  0.5018E-02
      5.136  0.1732E-03  0.1732E-03  0.5029E-02  0.5029E-02
      5.197  0.1458E-03  0.1458E-03  0.5038E-02  0.5038E-02
      5.258  0.5731E-04  0.5731E-04  0.5041E-02  0.5041E-02
      5.319  0.1134E-03  0.1134E-03  0.5048E-02  0.5048E-02
      5.380  0.2126E-03  0.2126E-03  0.5061E-02  0.5061E-02
      5.441  0.2591E-03  0.2591E-03  0.5077E-02  0.5077E-02
      5.502  0.1924E-03  0.1924E-03  0.5088E-02  0.5088E-02
      5.563  0.2490E-03  0.2490E-03  0.5104E-02  0.5104E-02
      5.624  0.3194E-03  0.3194E-03  0.5123E-02  0.5123E-02
      5.685  0.2413E-03  0.2413E-03  0.5138E-02  0.5138E-02
      5.746  0.2606E-03  0.2606E-03  0.5154E-02  0.5154E-02
      5.807  0.1816E-03  0.1816E-03  0.5165E-02  0.5165E-02
      5.867  0.2247E-03  0.2247E-03  0.5178E-02  0.5178E-02
      5.928  0.2300E-03  0.2300E-03  0.5192E-02  0.5192E-02
      5.989  0.2957E-03  0.2957E-03  0.5210E-02  0.5210E-02
      6.050  0.3741E-03  0.3741E-03  0.5233E-02  0.5233E-02
      6.111  0.1877E-03  0.1877E-03  0.5245E-02  0.5245E-02
      6.172  0.1205E-03  0.1205E-03  0.5252E-02  0.5252E-02
      6.233  0.3006E-03  0.3006E-03  0.5270E-02  0.5270E-02
      6.294  0.2859E-03  0.2859E-03  0.5288E-02  0.5288E-02
      6.355  0.1765E-03  0.1765E-03  0.5299E-02  0.5299E-02
      6.416  0.1729E-03  0.1729E-03  0.5309E-02  0.5309E-02
      6.477  0.2050E-03  0.2050E-03  0.5322E-02  0.5322E-02
      6.538  0.1361E-03  0.1361E-03  0.5330E-02  0.5330E-02
      6.599  0.1569E-03  0.1569E-03  0.5339E-02  0.5339E-02
      6.660  0.2789E-03  0.2789E-03  0.5356E-02  0.5356E-02
      6.721  0.2991E-03  0.2991E-03  0.5375E-02  0.5375E-02
      6.782  0.2094E-03  0.2094E-03  0.5387E-02  0.5387E-02
      6.843  0.1942E-03  0.1942E-03  0.5399E-02  0.5399E-02
      6.904  0.2185E-03  0.2185E-03  0.5413E-02  0.5413E-02
      6.965  0.2299E-03  0.2299E-03  0.5427E-02  0.5427E-02
      7.026  0.2224E-03  0.2224E-03  0.5440E-02  0.5440E-02
      7.087  0.1779E-03  0.1779E-03  0.5451E-02  0.5451E-02
      7.148  0.1697E-03  0.1697E-03  0.5461E-02  0.5461E-02
      7.209  0.1931E-03  0.1931E-03  0.5473E-02  0.5473E-02
      7.270  0.3194E-03  0.3194E-03  0.5493E-02  0.5493E-02
      7.331  0.2995E-03  0.2995E-03  0.5511E-02  0.5511E-02
      7.391  0.1745E-03  0.1745E-03  0.5522E-02  0.5522E-02
      7.452  0.8060E-04  0.8060E-04  0.5526E-02  0.5526E-02
      7.513  0.1850E-03  0.1850E-03  0.5538E-02  0.5538E-02
      7.574  0.2286E-03  0.2286E-03  0.5552E-02  0.5552E-02
      7.635  0.1201E-03  0.1201E-03  0.5559E-02  0.5559E-02
      7.696  0.1611E-03  0.1611E-03  0.5569E-02  0.5569E-02
      7.757  0.1553E-03  0.1553E-03  0.5578E-02  0.5578E-02
      7.818  0.8262E-04  0.8262E-04  0.5583E-02  0.5583E-02
      7.879  0.4490E-04  0.4490E-04  0.5586E-02  0.5586E-02
      7.940  0.4660E-04  0.4660E-04  0.5589E-02  0.5589E-02
      8.001  0.3573E-04  0.3573E-04  0.5591E-02  0.5591E-02
      8.062  0.5451E-04  0.5451E-04  0.5594E-02  0.5594E-02
      8.123  0.7852E-04  0.7852E-04  0.5599E-02  0.5599E-02
      8.184  0.1332E-04  0.1332E-04  0.5600E-02  0.5600E-02
      8.245  0.2006E-06  0.2006E-06  0.5600E-02  0.5600E-02
      8.306  0.2116E-09  0.2116E-09  0.5600E-02  0.5600E-02
      8.367  0.1346E-13  0.1346E-13  0.5600E-02  0.5600E-02
      8.428  0.4843E-19  0.4843E-19  0.5600E-02  0.5600E-02
      8.489  0.0000E+00  0.0000E+00  0.5600E-02  0.5600E-02
      8.550  0.0000E+00  0.0000E+00  0.5600E-02  0.5600E-02
      8.611  0.0000E+00  0.0000E+00  0.5600E-02  0.5600E-02
      8.672  0.0000E+00  0.0000E+00  0.5600E-02  0.5600E-02
      8.733  0.0000E+00  0.0000E+00  0.5600E-02  0.5600E-02
      8.794  0.0000E+00  0.0000E+00  0.5600E-02  0.5600E-02
      8.855  0.0000E+00  0.0000E+00  0.5600E-02  0.5600E-02
      8.915  0.0000E+00  0.0000E+00  0.5600E-02  0.5600E-02
