    4    4 5000    2
  0.4439676E+02  0.2897865E-09  0.2897865E-09  0.2114730E-08  0.2500000E-15
  1.000000000000000E-004
  CAR 
 Slab Fe 1x1 4Layers                     
     44    181     28
 
  0.0000000E+00  0.0000000E+00  0.0000000E+00  0.2770083E-02
    1       -8.541104     -8.541104   1.000000   1.000000
    2       -6.999637     -6.999637   1.000000   1.000000
    3       -6.023170     -6.023170   1.000000   1.000000
    4       -5.841179     -5.841179   1.000000   1.000000
    5       -5.725358     -5.725358   1.000000   1.000000
    6       -5.176196     -5.176196   1.000000   1.000000
    7       -4.494560     -4.494560   1.000000   1.000000
    8       -4.170356     -4.170356   1.000000   1.000000
    9       -3.737175     -3.737175   1.000000   1.000000
   10       -3.735981     -3.735981   1.000000   1.000000
   11       -3.034597     -3.034597   1.000000   1.000000
   12       -2.873601     -2.873601   1.000000   1.000000
   13       -2.873281     -2.873281   1.000000   1.000000
   14       -2.826607     -2.826607   1.000000   1.000000
   15       -2.479966     -2.479966   1.000000   1.000000
   16       -2.411528     -2.411528   1.000000   1.000000
   17       -1.965352     -1.965352   1.000000   1.000000
   18       -1.898135     -1.898135   1.000000   1.000000
   19       -1.898044     -1.898044   1.000000   1.000000
   20       -1.485511     -1.485511   1.000000   1.000000
   21       -1.381727     -1.381727   1.000000   1.000000
   22       -1.284898     -1.284898   1.000000   1.000000
   23       -1.284213     -1.284213   1.000000   1.000000
   24        0.015078      0.015078   1.000000   1.000000
   25        1.808766      1.808766   0.000000   0.000000
   26        5.363343      5.363343   0.000000   0.000000
   27        5.401577      5.401577   0.000000   0.000000
   28        6.846859      6.846859   0.000000   0.000000
 
  0.5263158E-01  0.0000000E+00  0.0000000E+00  0.5540166E-02
    1       -8.479963     -8.479963   1.000000   1.000000
    2       -6.947279     -6.947279   1.000000   1.000000
    3       -5.980225     -5.980225   1.000000   1.000000
    4       -5.807002     -5.807002   1.000000   1.000000
    5       -5.675971     -5.675971   1.000000   1.000000
    6       -5.148556     -5.148556   1.000000   1.000000
    7       -4.476172     -4.476172   1.000000   1.000000
    8       -4.142035     -4.142035   1.000000   1.000000
    9       -3.758944     -3.758944   1.000000   1.000000
   10       -3.726113     -3.726113   1.000000   1.000000
   11       -3.099151     -3.099151   1.000000   1.000000
   12       -3.023958     -3.023958   1.000000   1.000000
   13       -2.906339     -2.906339   1.000000   1.000000
   14       -2.723555     -2.723555   1.000000   1.000000
   15       -2.403549     -2.403549   1.000000   1.000000
   16       -2.384606     -2.384606   1.000000   1.000000
   17       -2.106798     -2.106798   1.000000   1.000000
   18       -1.972122     -1.972122   1.000000   1.000000
   19       -1.786603     -1.786603   1.000000   1.000000
   20       -1.540174     -1.540174   1.000000   1.000000
   21       -1.413449     -1.413449   1.000000   1.000000
   22       -1.354500     -1.354500   1.000000   1.000000
   23       -1.263128     -1.263128   1.000000   1.000000
   24        0.139344      0.139344   1.000000   1.000000
   25        1.978519      1.978519   0.000000   0.000000
   26        5.415759      5.415759   0.000000   0.000000
   27        5.442244      5.442244   0.000000   0.000000
   28        6.898488      6.898488   0.000000   0.000000
 
  0.1052632E+00  0.0000000E+00  0.0000000E+00  0.5540166E-02
    1       -8.300468     -8.300468   1.000000   1.000000
    2       -6.801944     -6.801944   1.000000   1.000000
    3       -5.875634     -5.875634   1.000000   1.000000
    4       -5.686311     -5.686311   1.000000   1.000000
    5       -5.559206     -5.559206   1.000000   1.000000
    6       -5.041723     -5.041723   1.000000   1.000000
    7       -4.415924     -4.415924   1.000000   1.000000
    8       -4.060224     -4.060224   1.000000   1.000000
    9       -3.810593     -3.810593   1.000000   1.000000
   10       -3.696845     -3.696845   1.000000   1.000000
   11       -3.372342     -3.372342   1.000000   1.000000
   12       -3.015840     -3.015840   1.000000   1.000000
   13       -2.995317     -2.995317   1.000000   1.000000
   14       -2.683692     -2.683692   1.000000   1.000000
   15       -2.390473     -2.390473   1.000000   1.000000
   16       -2.296017     -2.296017   1.000000   1.000000
   17       -2.292988     -2.292988   1.000000   1.000000
   18       -2.121285     -2.121285   1.000000   1.000000
   19       -1.696367     -1.696367   1.000000   1.000000
   20       -1.652257     -1.652257   1.000000   1.000000
   21       -1.488109     -1.488109   1.000000   1.000000
   22       -1.432321     -1.432321   1.000000   1.000000
   23       -1.241418     -1.241418   1.000000   1.000000
   24        0.455581      0.455581   0.126938   0.126938
   25        2.423727      2.423727   0.000000   0.000000
   26        5.558756      5.558756   0.000000   0.000000
   27        5.574908      5.574908   0.000000   0.000000
   28        7.052525      7.052525   0.000000   0.000000
 
  0.1578947E+00  0.0000000E+00  0.0000000E+00  0.5540166E-02
    1       -8.015036     -8.015036   1.000000   1.000000
    2       -6.601620     -6.601620   1.000000   1.000000
    3       -5.748765     -5.748765   1.000000   1.000000
    4       -5.459715     -5.459715   1.000000   1.000000
    5       -5.456832     -5.456832   1.000000   1.000000
    6       -4.796701     -4.796701   1.000000   1.000000
    7       -4.300201     -4.300201   1.000000   1.000000
    8       -3.937183     -3.937183   1.000000   1.000000
    9       -3.858251     -3.858251   1.000000   1.000000
   10       -3.656362     -3.656362   1.000000   1.000000
   11       -3.613479     -3.613479   1.000000   1.000000
   12       -3.122500     -3.122500   1.000000   1.000000
   13       -3.054601     -3.054601   1.000000   1.000000
   14       -2.671142     -2.671142   1.000000   1.000000
   15       -2.492194     -2.492194   1.000000   1.000000
   16       -2.399094     -2.399094   1.000000   1.000000
   17       -2.392148     -2.392148   1.000000   1.000000
   18       -2.218847     -2.218847   1.000000   1.000000
   19       -1.763201     -1.763201   1.000000   1.000000
   20       -1.733580     -1.733580   1.000000   1.000000
   21       -1.508078     -1.508078   1.000000   1.000000
   22       -1.305503     -1.305503   1.000000   1.000000
   23       -1.249995     -1.249995   1.000000   1.000000
   24        0.877502      0.877502   0.000000   0.000000
   25        3.034616      3.034616   0.000000   0.000000
   26        5.736739      5.736739   0.000000   0.000000
   27        5.836592      5.836592   0.000000   0.000000
   28        7.303658      7.303658   0.000000   0.000000
 
  0.2105263E+00  0.0000000E+00  0.0000000E+00  0.5540166E-02
    1       -7.646629     -7.646629   1.000000   1.000000
    2       -6.408832     -6.408832   1.000000   1.000000
    3       -5.604149     -5.604149   1.000000   1.000000
    4       -5.419679     -5.419679   1.000000   1.000000
    5       -5.147760     -5.147760   1.000000   1.000000
    6       -4.425143     -4.425143   1.000000   1.000000
    7       -4.141665     -4.141665   1.000000   1.000000
    8       -3.857705     -3.857705   1.000000   1.000000
    9       -3.847834     -3.847834   1.000000   1.000000
   10       -3.715861     -3.715861   1.000000   1.000000
   11       -3.613890     -3.613890   1.000000   1.000000
   12       -3.268316     -3.268316   1.000000   1.000000
   13       -3.122915     -3.122915   1.000000   1.000000
   14       -2.802268     -2.802268   1.000000   1.000000
   15       -2.675169     -2.675169   1.000000   1.000000
   16       -2.456759     -2.456759   1.000000   1.000000
   17       -2.420331     -2.420331   1.000000   1.000000
   18       -2.207508     -2.207508   1.000000   1.000000
   19       -1.876989     -1.876989   1.000000   1.000000
   20       -1.828785     -1.828785   1.000000   1.000000
   21       -1.468333     -1.468333   1.000000   1.000000
   22       -1.293236     -1.293236   1.000000   1.000000
   23       -1.023978     -1.023978   1.000000   1.000000
   24        1.355986      1.355986   0.000000   0.000000
   25        3.732199      3.732199   0.000000   0.000000
   26        5.857839      5.857839   0.000000   0.000000
   27        6.199320      6.199320   0.000000   0.000000
   28        6.921187      6.921187   0.000000   0.000000
 
  0.2631579E+00  0.0000000E+00  0.0000000E+00  0.5540166E-02
    1       -7.232598     -7.232598   1.000000   1.000000
    2       -6.279026     -6.279026   1.000000   1.000000
    3       -5.452378     -5.452378   1.000000   1.000000
    4       -5.424419     -5.424419   1.000000   1.000000
    5       -4.806401     -4.806401   1.000000   1.000000
    6       -4.133943     -4.133943   1.000000   1.000000
    7       -4.060292     -4.060292   1.000000   1.000000
    8       -3.842623     -3.842623   1.000000   1.000000
    9       -3.720029     -3.720029   1.000000   1.000000
   10       -3.595011     -3.595011   1.000000   1.000000
   11       -3.545101     -3.545101   1.000000   1.000000
   12       -3.416602     -3.416602   1.000000   1.000000
   13       -3.043598     -3.043598   1.000000   1.000000
   14       -3.000941     -3.000941   1.000000   1.000000
   15       -2.821404     -2.821404   1.000000   1.000000
   16       -2.567065     -2.567065   1.000000   1.000000
   17       -2.247852     -2.247852   1.000000   1.000000
   18       -2.119091     -2.119091   1.000000   1.000000
   19       -2.025649     -2.025649   1.000000   1.000000
   20       -1.834030     -1.834030   1.000000   1.000000
   21       -1.437283     -1.437283   1.000000   1.000000
   22       -1.367504     -1.367504   1.000000   1.000000
   23       -0.669264     -0.669264   1.000000   1.000000
   24        1.871727      1.871727   0.000000   0.000000
   25        4.457604      4.457604   0.000000   0.000000
   26        5.282218      5.282218   0.000000   0.000000
   27        6.601596      6.601596   0.000000   0.000000
   28        6.739905      6.739905   0.000000   0.000000
 
  0.3157895E+00  0.0000000E+00  0.0000000E+00  0.5540166E-02
    1       -6.829805     -6.829805   1.000000   1.000000
    2       -6.221699     -6.221699   1.000000   1.000000
    3       -5.441941     -5.441941   1.000000   1.000000
    4       -5.312396     -5.312396   1.000000   1.000000
    5       -4.530066     -4.530066   1.000000   1.000000
    6       -4.123799     -4.123799   1.000000   1.000000
    7       -4.030843     -4.030843   1.000000   1.000000
    8       -3.690789     -3.690789   1.000000   1.000000
    9       -3.617317     -3.617317   1.000000   1.000000
   10       -3.607488     -3.607488   1.000000   1.000000
   11       -3.552036     -3.552036   1.000000   1.000000
   12       -3.450778     -3.450778   1.000000   1.000000
   13       -2.914208     -2.914208   1.000000   1.000000
   14       -2.887299     -2.887299   1.000000   1.000000
   15       -2.698823     -2.698823   1.000000   1.000000
   16       -2.591857     -2.591857   1.000000   1.000000
   17       -2.134927     -2.134927   1.000000   1.000000
   18       -1.996952     -1.996952   1.000000   1.000000
   19       -1.926035     -1.926035   1.000000   1.000000
   20       -1.801208     -1.801208   1.000000   1.000000
   21       -1.466253     -1.466253   1.000000   1.000000
   22       -1.424311     -1.424311   1.000000   1.000000
   23       -0.244066     -0.244066   1.000000   1.000000
   24        2.419967      2.419967   0.000000   0.000000
   25        4.174117      4.174117   0.000000   0.000000
   26        5.016873      5.016873   0.000000   0.000000
   27        5.990843      5.990843   0.000000   0.000000
   28        7.113005      7.113005   0.000000   0.000000
 
  0.3684211E+00  0.0000000E+00  0.0000000E+00  0.5540166E-02
    1       -6.512870     -6.512870   1.000000   1.000000
    2       -6.212262     -6.212262   1.000000   1.000000
    3       -5.424941     -5.424941   1.000000   1.000000
    4       -5.205665     -5.205665   1.000000   1.000000
    5       -4.401967     -4.401967   1.000000   1.000000
    6       -4.142010     -4.142010   1.000000   1.000000
    7       -3.992057     -3.992057   1.000000   1.000000
    8       -3.714451     -3.714451   1.000000   1.000000
    9       -3.675638     -3.675638   1.000000   1.000000
   10       -3.661168     -3.661168   1.000000   1.000000
   11       -3.473550     -3.473550   1.000000   1.000000
   12       -3.440980     -3.440980   1.000000   1.000000
   13       -2.963277     -2.963277   1.000000   1.000000
   14       -2.821301     -2.821301   1.000000   1.000000
   15       -2.462132     -2.462132   1.000000   1.000000
   16       -2.175894     -2.175894   1.000000   1.000000
   17       -1.916925     -1.916925   1.000000   1.000000
   18       -1.803498     -1.803498   1.000000   1.000000
   19       -1.768494     -1.768494   1.000000   1.000000
   20       -1.563778     -1.563778   1.000000   1.000000
   21       -1.453944     -1.453944   1.000000   1.000000
   22       -1.433089     -1.433089   1.000000   1.000000
   23        0.278341      0.278341   0.999946   0.999946
   24        2.934964      2.934964   0.000000   0.000000
   25        3.069683      3.069683   0.000000   0.000000
   26        4.263861      4.263861   0.000000   0.000000
   27        6.202278      6.202278   0.000000   0.000000
   28        6.596321      6.596321   0.000000   0.000000
 
  0.4210526E+00  0.0000000E+00  0.0000000E+00  0.5540166E-02
    1       -6.334269     -6.334269   1.000000   1.000000
    2       -6.222983     -6.222983   1.000000   1.000000
    3       -5.346970     -5.346970   1.000000   1.000000
    4       -5.154978     -5.154978   1.000000   1.000000
    5       -4.336647     -4.336647   1.000000   1.000000
    6       -4.151373     -4.151373   1.000000   1.000000
    7       -3.976080     -3.976080   1.000000   1.000000
    8       -3.843532     -3.843532   1.000000   1.000000
    9       -3.744441     -3.744441   1.000000   1.000000
   10       -3.731132     -3.731132   1.000000   1.000000
   11       -3.355339     -3.355339   1.000000   1.000000
   12       -3.327242     -3.327242   1.000000   1.000000
   13       -2.990132     -2.990132   1.000000   1.000000
   14       -2.916131     -2.916131   1.000000   1.000000
   15       -2.141610     -2.141610   1.000000   1.000000
   16       -2.086121     -2.086121   1.000000   1.000000
   17       -1.811545     -1.811545   1.000000   1.000000
   18       -1.793589     -1.793589   1.000000   1.000000
   19       -1.592411     -1.592411   1.000000   1.000000
   20       -1.459626     -1.459626   1.000000   1.000000
   21       -0.918206     -0.918206   1.000000   1.000000
   22       -0.832482     -0.832482   1.000000   1.000000
   23        0.856606      0.856606   0.000000   0.000000
   24        1.900090      1.900090   0.000000   0.000000
   25        3.150650      3.150650   0.000000   0.000000
   26        3.436817      3.436817   0.000000   0.000000
   27        5.607511      5.607511   0.000000   0.000000
   28        6.681161      6.681161   0.000000   0.000000
 
  0.4736842E+00  0.0000000E+00  0.0000000E+00  0.5540166E-02
    1       -6.265029     -6.265029   1.000000   1.000000
    2       -6.238220     -6.238220   1.000000   1.000000
    3       -5.244887     -5.244887   1.000000   1.000000
    4       -5.171682     -5.171682   1.000000   1.000000
    5       -4.256052     -4.256052   1.000000   1.000000
    6       -4.179699     -4.179699   1.000000   1.000000
    7       -3.974115     -3.974115   1.000000   1.000000
    8       -3.943190     -3.943190   1.000000   1.000000
    9       -3.781808     -3.781808   1.000000   1.000000
   10       -3.770725     -3.770725   1.000000   1.000000
   11       -3.277242     -3.277242   1.000000   1.000000
   12       -3.256231     -3.256231   1.000000   1.000000
   13       -2.997351     -2.997351   1.000000   1.000000
   14       -2.974824     -2.974824   1.000000   1.000000
   15       -2.049686     -2.049686   1.000000   1.000000
   16       -1.928375     -1.928375   1.000000   1.000000
   17       -1.856021     -1.856021   1.000000   1.000000
   18       -1.769828     -1.769828   1.000000   1.000000
   19       -1.551864     -1.551864   1.000000   1.000000
   20       -1.500729     -1.500729   1.000000   1.000000
   21       -0.070093     -0.070093   1.000000   1.000000
   22        0.065528      0.065528   1.000000   1.000000
   23        0.891866      0.891866   0.000000   0.000000
   24        0.955062      0.955062   0.000000   0.000000
   25        2.696091      2.696091   0.000000   0.000000
   26        3.224354      3.224354   0.000000   0.000000
   27        5.527525      5.527525   0.000000   0.000000
   28        6.210655      6.210655   0.000000   0.000000
 
  0.0000000E+00  0.5263158E-01  0.0000000E+00  0.5540166E-02
    1       -8.479963     -8.479963   1.000000   1.000000
    2       -6.947279     -6.947279   1.000000   1.000000
    3       -5.980225     -5.980225   1.000000   1.000000
    4       -5.807002     -5.807002   1.000000   1.000000
    5       -5.675971     -5.675971   1.000000   1.000000
    6       -5.148556     -5.148556   1.000000   1.000000
    7       -4.476172     -4.476172   1.000000   1.000000
    8       -4.142035     -4.142035   1.000000   1.000000
    9       -3.758944     -3.758944   1.000000   1.000000
   10       -3.726113     -3.726113   1.000000   1.000000
   11       -3.099151     -3.099151   1.000000   1.000000
   12       -3.023958     -3.023958   1.000000   1.000000
   13       -2.906339     -2.906339   1.000000   1.000000
   14       -2.723555     -2.723555   1.000000   1.000000
   15       -2.403549     -2.403549   1.000000   1.000000
   16       -2.384606     -2.384606   1.000000   1.000000
   17       -2.106798     -2.106798   1.000000   1.000000
   18       -1.972122     -1.972122   1.000000   1.000000
   19       -1.786603     -1.786603   1.000000   1.000000
   20       -1.540174     -1.540174   1.000000   1.000000
   21       -1.413449     -1.413449   1.000000   1.000000
   22       -1.354500     -1.354500   1.000000   1.000000
   23       -1.263128     -1.263128   1.000000   1.000000
   24        0.139344      0.139344   1.000000   1.000000
   25        1.978519      1.978519   0.000000   0.000000
   26        5.415759      5.415759   0.000000   0.000000
   27        5.442244      5.442244   0.000000   0.000000
   28        6.898488      6.898488   0.000000   0.000000
 
  0.5263158E-01  0.5263158E-01  0.0000000E+00  0.5540166E-02
    1       -8.418807     -8.418807   1.000000   1.000000
    2       -6.894049     -6.894049   1.000000   1.000000
    3       -5.934362     -5.934362   1.000000   1.000000
    4       -5.776113     -5.776113   1.000000   1.000000
    5       -5.622876     -5.622876   1.000000   1.000000
    6       -5.125022     -5.125022   1.000000   1.000000
    7       -4.461599     -4.461599   1.000000   1.000000
    8       -4.113427     -4.113427   1.000000   1.000000
    9       -3.764789     -3.764789   1.000000   1.000000
   10       -3.730228     -3.730228   1.000000   1.000000
   11       -3.222672     -3.222672   1.000000   1.000000
   12       -3.013131     -3.013131   1.000000   1.000000
   13       -2.896089     -2.896089   1.000000   1.000000
   14       -2.731894     -2.731894   1.000000   1.000000
   15       -2.474793     -2.474793   1.000000   1.000000
   16       -2.253128     -2.253128   1.000000   1.000000
   17       -2.236165     -2.236165   1.000000   1.000000
   18       -1.915182     -1.915182   1.000000   1.000000
   19       -1.805975     -1.805975   1.000000   1.000000
   20       -1.622033     -1.622033   1.000000   1.000000
   21       -1.450081     -1.450081   1.000000   1.000000
   22       -1.326738     -1.326738   1.000000   1.000000
   23       -1.291560     -1.291560   1.000000   1.000000
   24        0.256575      0.256575   0.999996   0.999996
   25        2.135755      2.135755   0.000000   0.000000
   26        5.467958      5.467958   0.000000   0.000000
   27        5.482951      5.482951   0.000000   0.000000
   28        6.950194      6.950194   0.000000   0.000000
 
  0.1052632E+00  0.5263158E-01  0.0000000E+00  0.5540166E-02
    1       -8.239315     -8.239315   1.000000   1.000000
    2       -6.746100     -6.746100   1.000000   1.000000
    3       -5.822992     -5.822992   1.000000   1.000000
    4       -5.663507     -5.663507   1.000000   1.000000
    5       -5.495657     -5.495657   1.000000   1.000000
    6       -5.030014     -5.030014   1.000000   1.000000
    7       -4.414207     -4.414207   1.000000   1.000000
    8       -4.030760     -4.030760   1.000000   1.000000
    9       -3.805796     -3.805796   1.000000   1.000000
   10       -3.704206     -3.704206   1.000000   1.000000
   11       -3.448553     -3.448553   1.000000   1.000000
   12       -3.004399     -3.004399   1.000000   1.000000
   13       -2.972203     -2.972203   1.000000   1.000000
   14       -2.714178     -2.714178   1.000000   1.000000
   15       -2.512350     -2.512350   1.000000   1.000000
   16       -2.423337     -2.423337   1.000000   1.000000
   17       -2.177635     -2.177635   1.000000   1.000000
   18       -2.022232     -2.022232   1.000000   1.000000
   19       -1.752128     -1.752128   1.000000   1.000000
   20       -1.730615     -1.730615   1.000000   1.000000
   21       -1.538772     -1.538772   1.000000   1.000000
   22       -1.347683     -1.347683   1.000000   1.000000
   23       -1.256802     -1.256802   1.000000   1.000000
   24        0.558270      0.558270   0.000026   0.000026
   25        2.555312      2.555312   0.000000   0.000000
   26        5.598740      5.598740   0.000000   0.000000
   27        5.627326      5.627326   0.000000   0.000000
   28        7.104459      7.104459   0.000000   0.000000
 
  0.1578947E+00  0.5263158E-01  0.0000000E+00  0.5540166E-02
    1       -7.954040     -7.954040   1.000000   1.000000
    2       -6.541904     -6.541904   1.000000   1.000000
    3       -5.694132     -5.694132   1.000000   1.000000
    4       -5.439571     -5.439571   1.000000   1.000000
    5       -5.389102     -5.389102   1.000000   1.000000
    6       -4.794018     -4.794018   1.000000   1.000000
    7       -4.324935     -4.324935   1.000000   1.000000
    8       -3.906658     -3.906658   1.000000   1.000000
    9       -3.841325     -3.841325   1.000000   1.000000
   10       -3.677327     -3.677327   1.000000   1.000000
   11       -3.650992     -3.650992   1.000000   1.000000
   12       -3.109659     -3.109659   1.000000   1.000000
   13       -3.043080     -3.043080   1.000000   1.000000
   14       -2.676194     -2.676194   1.000000   1.000000
   15       -2.611612     -2.611612   1.000000   1.000000
   16       -2.593639     -2.593639   1.000000   1.000000
   17       -2.232190     -2.232190   1.000000   1.000000
   18       -2.136598     -2.136598   1.000000   1.000000
   19       -1.851762     -1.851762   1.000000   1.000000
   20       -1.751685     -1.751685   1.000000   1.000000
   21       -1.566957     -1.566957   1.000000   1.000000
   22       -1.299417     -1.299417   1.000000   1.000000
   23       -1.163371     -1.163371   1.000000   1.000000
   24        0.965460      0.965460   0.000000   0.000000
   25        3.141760      3.141760   0.000000   0.000000
   26        5.775638      5.775638   0.000000   0.000000
   27        5.889668      5.889668   0.000000   0.000000
   28        7.355973      7.355973   0.000000   0.000000
 
  0.2105263E+00  0.5263158E-01  0.0000000E+00  0.5540166E-02
    1       -7.586147     -7.586147   1.000000   1.000000
    2       -6.346186     -6.346186   1.000000   1.000000
    3       -5.549311     -5.549311   1.000000   1.000000
    4       -5.353821     -5.353821   1.000000   1.000000
    5       -5.134313     -5.134313   1.000000   1.000000
    6       -4.422660     -4.422660   1.000000   1.000000
    7       -4.206291     -4.206291   1.000000   1.000000
    8       -3.867106     -3.867106   1.000000   1.000000
    9       -3.826291     -3.826291   1.000000   1.000000
   10       -3.730039     -3.730039   1.000000   1.000000
   11       -3.592386     -3.592386   1.000000   1.000000
   12       -3.260240     -3.260240   1.000000   1.000000
   13       -3.111069     -3.111069   1.000000   1.000000
   14       -2.848774     -2.848774   1.000000   1.000000
   15       -2.742222     -2.742222   1.000000   1.000000
   16       -2.579691     -2.579691   1.000000   1.000000
   17       -2.287464     -2.287464   1.000000   1.000000
   18       -2.170935     -2.170935   1.000000   1.000000
   19       -1.913917     -1.913917   1.000000   1.000000
   20       -1.880126     -1.880126   1.000000   1.000000
   21       -1.513238     -1.513238   1.000000   1.000000
   22       -1.319400     -1.319400   1.000000   1.000000
   23       -0.903813     -0.903813   1.000000   1.000000
   24        1.431102      1.431102   0.000000   0.000000
   25        3.820473      3.820473   0.000000   0.000000
   26        5.902993      5.902993   0.000000   0.000000
   27        6.252869      6.252869   0.000000   0.000000
   28        6.998984      6.998984   0.000000   0.000000
 
  0.2631579E+00  0.5263158E-01  0.0000000E+00  0.5540166E-02
    1       -7.173182     -7.173182   1.000000   1.000000
    2       -6.217088     -6.217088   1.000000   1.000000
    3       -5.396823     -5.396823   1.000000   1.000000
    4       -5.366308     -5.366308   1.000000   1.000000
    5       -4.801581     -4.801581   1.000000   1.000000
    6       -4.133229     -4.133229   1.000000   1.000000
    7       -4.126761     -4.126761   1.000000   1.000000
    8       -3.859015     -3.859015   1.000000   1.000000
    9       -3.756057     -3.756057   1.000000   1.000000
   10       -3.608301     -3.608301   1.000000   1.000000
   11       -3.513311     -3.513311   1.000000   1.000000
   12       -3.369026     -3.369026   1.000000   1.000000
   13       -3.055017     -3.055017   1.000000   1.000000
   14       -3.045882     -3.045882   1.000000   1.000000
   15       -2.849328     -2.849328   1.000000   1.000000
   16       -2.555100     -2.555100   1.000000   1.000000
   17       -2.223879     -2.223879   1.000000   1.000000
   18       -2.177079     -2.177079   1.000000   1.000000
   19       -1.947795     -1.947795   1.000000   1.000000
   20       -1.911036     -1.911036   1.000000   1.000000
   21       -1.466940     -1.466940   1.000000   1.000000
   22       -1.384669     -1.384669   1.000000   1.000000
   23       -0.558059     -0.558059   1.000000   1.000000
   24        1.936310      1.936310   0.000000   0.000000
   25        4.534071      4.534071   0.000000   0.000000
   26        5.363072      5.363072   0.000000   0.000000
   27        6.658724      6.658724   0.000000   0.000000
   28        6.792588      6.792588   0.000000   0.000000
 
  0.3157895E+00  0.5263158E-01  0.0000000E+00  0.5540166E-02
    1       -6.771998     -6.771998   1.000000   1.000000
    2       -6.163519     -6.163519   1.000000   1.000000
    3       -5.392772     -5.392772   1.000000   1.000000
    4       -5.255782     -5.255782   1.000000   1.000000
    5       -4.548016     -4.548016   1.000000   1.000000
    6       -4.126690     -4.126690   1.000000   1.000000
    7       -4.067209     -4.067209   1.000000   1.000000
    8       -3.729327     -3.729327   1.000000   1.000000
    9       -3.699094     -3.699094   1.000000   1.000000
   10       -3.590430     -3.590430   1.000000   1.000000
   11       -3.509392     -3.509392   1.000000   1.000000
   12       -3.441493     -3.441493   1.000000   1.000000
   13       -2.941405     -2.941405   1.000000   1.000000
   14       -2.935225     -2.935225   1.000000   1.000000
   15       -2.637806     -2.637806   1.000000   1.000000
   16       -2.615538     -2.615538   1.000000   1.000000
   17       -2.182920     -2.182920   1.000000   1.000000
   18       -1.932798     -1.932798   1.000000   1.000000
   19       -1.889479     -1.889479   1.000000   1.000000
   20       -1.859003     -1.859003   1.000000   1.000000
   21       -1.476282     -1.476282   1.000000   1.000000
   22       -1.429328     -1.429328   1.000000   1.000000
   23       -0.135494     -0.135494   1.000000   1.000000
   24        2.476561      2.476561   0.000000   0.000000
   25        4.263032      4.263032   0.000000   0.000000
   26        5.100482      5.100482   0.000000   0.000000
   27        6.039603      6.039603   0.000000   0.000000
   28        7.156230      7.156230   0.000000   0.000000
 
  0.3684211E+00  0.5263158E-01  0.0000000E+00  0.5540166E-02
    1       -6.457056     -6.457056   1.000000   1.000000
    2       -6.158353     -6.158353   1.000000   1.000000
    3       -5.383874     -5.383874   1.000000   1.000000
    4       -5.148509     -5.148509   1.000000   1.000000
    5       -4.450058     -4.450058   1.000000   1.000000
    6       -4.136312     -4.136312   1.000000   1.000000
    7       -3.994560     -3.994560   1.000000   1.000000
    8       -3.828861     -3.828861   1.000000   1.000000
    9       -3.664962     -3.664962   1.000000   1.000000
   10       -3.582133     -3.582133   1.000000   1.000000
   11       -3.512294     -3.512294   1.000000   1.000000
   12       -3.501901     -3.501901   1.000000   1.000000
   13       -2.929934     -2.929934   1.000000   1.000000
   14       -2.794703     -2.794703   1.000000   1.000000
   15       -2.444891     -2.444891   1.000000   1.000000
   16       -2.375114     -2.375114   1.000000   1.000000
   17       -1.835265     -1.835265   1.000000   1.000000
   18       -1.815960     -1.815960   1.000000   1.000000