       N       E                     dE             d eps       ncg     rms          rms(c)
DAV:   1     0.352431765690E+03    0.35243E+03   -0.19372E+04 20328   0.120E+03
DAV:   2     0.300047644977E+02   -0.32243E+03   -0.30779E+03 24328   0.291E+02
DAV:   3     0.172711857213E+02   -0.12734E+02   -0.12507E+02 23184   0.602E+01
DAV:   4     0.170623625093E+02   -0.20882E+00   -0.20854E+00 24432   0.781E+00
DAV:   5     0.170582968699E+02   -0.40656E-02   -0.40649E-02 23512   0.105E+00    0.100E+02
DAV:   6     0.213431632707E+02    0.42849E+01   -0.16787E+01 21452   0.162E+01    0.663E+01
DAV:   7     0.254062744764E+02    0.40631E+01   -0.82877E+00 21016   0.167E+01    0.137E+01
DAV:   8     0.241216091189E+02   -0.12847E+01   -0.60897E-01 21908   0.691E+00    0.306E+00
DAV:   9     0.232537824142E+02   -0.86783E+00   -0.18896E-01 21784   0.233E+00    0.227E+00
DAV:  10     0.225012764521E+02   -0.75251E+00   -0.15543E-01 21360   0.180E+00    0.192E+00
DAV:  11     0.205428705157E+02   -0.19584E+01   -0.11783E+00 20932   0.456E+00    0.105E+00
DAV:  12     0.191499884106E+02   -0.13929E+01   -0.11870E+00 21532   0.378E+00    0.790E-01
DAV:  13     0.187873178465E+02   -0.36267E+00   -0.21471E-01 21784   0.159E+00    0.570E-01
DAV:  14     0.184289398851E+02   -0.35838E+00   -0.22346E-01 20796   0.153E+00    0.504E-01
DAV:  15     0.183306363712E+02   -0.98304E-01   -0.43272E-02 22364   0.595E-01    0.249E-01
DAV:  16     0.182814278392E+02   -0.49209E-01   -0.17775E-02 21320   0.391E-01    0.175E-01
DAV:  17     0.182690896329E+02   -0.12338E-01   -0.62008E-03 21300   0.243E-01    0.140E-01
DAV:  18     0.182668045843E+02   -0.22850E-02   -0.22519E-03 21248   0.172E-01    0.669E-02
DAV:  19     0.182408512463E+02   -0.25953E-01   -0.15962E-03 21284   0.115E-01    0.458E-02
DAV:  20     0.182254652070E+02   -0.15386E-01   -0.32229E-04 21564   0.621E-02    0.305E-02
DAV:  21     0.182132561782E+02   -0.12209E-01   -0.36710E-04 21760   0.508E-02    0.210E-02
DAV:  22     0.182079227527E+02   -0.53334E-02   -0.13385E-04 21208   0.346E-02    0.147E-02
DAV:  23     0.182070870774E+02   -0.83568E-03   -0.28633E-05 18536   0.180E-02    0.861E-03
DAV:  24     0.182064070761E+02   -0.68000E-03   -0.32599E-05 18232   0.140E-02    0.835E-03
DAV:  25     0.182062591452E+02   -0.14793E-03   -0.13994E-05 16208   0.933E-03    0.517E-03
DAV:  26     0.182062321645E+02   -0.26981E-04   -0.41340E-06 15860   0.706E-03    0.189E-03
DAV:  27     0.182062264656E+02   -0.56989E-05   -0.55327E-07 15588   0.311E-03    0.950E-04
DAV:  28     0.182062249181E+02   -0.15475E-05   -0.49524E-07 14892   0.230E-03    0.604E-04
DAV:  29     0.182062219646E+02   -0.29535E-05   -0.43262E-07 15396   0.132E-03    0.402E-04
DAV:  30     0.182062203598E+02   -0.16048E-05   -0.20014E-07 15540   0.794E-04    0.293E-04
DAV:  31     0.182062202246E+02   -0.13515E-06   -0.40877E-08 14672   0.616E-04
   1 F= 0.15474414E+02 E0= 0.15475009E+02  d E =0.154744E+02  mag=     0.0000
       N       E                     dE             d eps       ncg     rms          rms(c)
DAV:   1     0.647438691044E+02    0.46538E+02   -0.72884E+03 29840   0.463E+02    0.778E+01
DAV:   2     0.924581256594E+01   -0.55498E+02   -0.54917E+02 21056   0.127E+02    0.482E+01
DAV:   3     0.900893668210E+01   -0.23688E+00   -0.13820E+01 22744   0.282E+01    0.366E+01
DAV:   4     0.881384882550E+01   -0.19509E+00   -0.40483E+00 22160   0.190E+01    0.255E+01
DAV:   5     0.917861755147E+01    0.36477E+00   -0.34101E+00 22224   0.199E+01    0.213E+00
DAV:   6     0.919383296429E+01    0.15215E-01   -0.25483E-01 21924   0.489E+00    0.901E-01
DAV:   7     0.919697464573E+01    0.31417E-02   -0.15969E-02 23452   0.892E-01    0.758E-01
DAV:   8     0.919856071855E+01    0.15861E-02   -0.78371E-03 22364   0.825E-01    0.279E-01
DAV:   9     0.919914613515E+01    0.58542E-03   -0.17214E-03 22484   0.401E-01    0.118E-01
DAV:  10     0.919922617196E+01    0.80037E-04   -0.14503E-04 22396   0.753E-02    0.682E-02
DAV:  11     0.919928996107E+01    0.63789E-04   -0.97417E-05 22156   0.520E-02    0.197E-02
DAV:  12     0.919924268380E+01   -0.47277E-04   -0.21880E-05 21700   0.274E-02    0.162E-02
DAV:  13     0.919916462293E+01   -0.78061E-04   -0.13006E-05 20332   0.140E-02    0.130E-02
DAV:  14     0.919909879527E+01   -0.65828E-04   -0.94574E-06 18592   0.186E-02    0.946E-03
DAV:  15     0.919905809076E+01   -0.40705E-04   -0.53997E-06 17976   0.133E-02    0.374E-03
DAV:  16     0.919904548976E+01   -0.12601E-04   -0.87351E-07 15640   0.783E-03    0.238E-03
DAV:  17     0.919903660666E+01   -0.88831E-05   -0.32243E-07 15368   0.296E-03    0.139E-03
DAV:  18     0.919903074592E+01   -0.58607E-05   -0.58464E-07 15832   0.211E-03    0.108E-03
DAV:  19     0.919902743187E+01   -0.33141E-05   -0.14866E-07 15792   0.164E-03    0.521E-04
DAV:  20     0.919902281024E+01   -0.46216E-05   -0.10875E-07 15376   0.894E-04    0.283E-04
DAV:  21     0.919901949049E+01   -0.33197E-05   -0.60784E-08 15336   0.594E-04    0.301E-04
DAV:  22     0.919901708194E+01   -0.24086E-05   -0.71489E-08 15080   0.660E-04    0.109E-04
DAV:  23     0.919901620591E+01   -0.87603E-06   -0.25577E-08 14388   0.413E-04
   2 F= 0.88969496E+01 E0= 0.88980753E+01  d E =-.657746E+01  mag=     0.0000
       N       E                     dE             d eps       ncg     rms          rms(c)
DAV:   1     0.129225099840E+02    0.37235E+01   -0.35072E+03 20272   0.322E+02    0.314E+01
DAV:   2     0.450454635877E+01   -0.84180E+01   -0.89902E+01 21824   0.575E+01    0.146E+01
DAV:   3     0.465724055445E+01    0.15269E+00   -0.21106E+00 23312   0.119E+01    0.857E+00
DAV:   4     0.469877407257E+01    0.41534E-01   -0.48647E-01 22560   0.736E+00    0.607E+00
DAV:   5     0.473741833798E+01    0.38644E-01   -0.41100E-01 22424   0.661E+00    0.715E-01
DAV:   6     0.474085531325E+01    0.34370E-02   -0.46583E-02 22136   0.237E+00    0.707E-01
DAV:   7     0.474095264432E+01    0.97331E-04   -0.21708E-03 23464   0.306E-01    0.301E-01
DAV:   8     0.474111163213E+01    0.15899E-03   -0.17988E-03 22384   0.446E-01    0.124E-01
DAV:   9     0.474109648346E+01   -0.15149E-04   -0.35686E-04 22104   0.200E-01    0.587E-02
DAV:  10     0.474108571033E+01   -0.10773E-04   -0.47386E-05 22632   0.604E-02    0.199E-02
DAV:  11     0.474106514972E+01   -0.20561E-04   -0.11115E-05 21072   0.228E-02    0.575E-03
DAV:  12     0.474106057328E+01   -0.45764E-05   -0.87455E-07 15496   0.673E-03    0.266E-03
DAV:  13     0.474104713223E+01   -0.13441E-04   -0.97684E-07 15144   0.460E-03    0.295E-03
DAV:  14     0.474104286340E+01   -0.42688E-05   -0.15462E-07 15016   0.187E-03    0.190E-03
DAV:  15     0.474103824242E+01   -0.46210E-05   -0.38861E-07 14856   0.179E-03    0.551E-04
DAV:  16     0.474103687458E+01   -0.13678E-05   -0.54044E-08 15048   0.119E-03    0.361E-04
DAV:  17     0.474103523910E+01   -0.16355E-05   -0.44078E-08 15216   0.765E-04    0.430E-04
DAV:  18     0.474103395045E+01   -0.12887E-05   -0.32609E-08 14704   0.581E-04    0.386E-04
DAV:  19     0.474103293103E+01   -0.10194E-05   -0.13998E-08 14312   0.390E-04    0.973E-05
DAV:  20     0.474103248034E+01   -0.45069E-06   -0.49720E-09 13680   0.181E-04
   3 F= 0.21756269E+01 E0= 0.21767160E+01  d E =-.132988E+02  mag=     0.0000
       N       E                     dE             d eps       ncg     rms          rms(c)
DAV:   1     0.465177917849E+01   -0.89254E-01   -0.73359E+01 20272   0.421E+01    0.263E+00
DAV:   2     0.459108236695E+01   -0.60697E-01   -0.65226E-01 21592   0.585E+00    0.180E+00
DAV:   3     0.459659557142E+01    0.55132E-02   -0.78853E-02 22360   0.239E+00    0.963E-01
DAV:   4     0.459855520259E+01    0.19596E-02   -0.27281E-02 21704   0.173E+00    0.340E-01
DAV:   5     0.459900518755E+01    0.44998E-03   -0.29468E-03 22408   0.565E-01    0.161E-01
DAV:   6     0.459934955793E+01    0.34437E-03   -0.12692E-03 22224   0.208E-01    0.517E-02
DAV:   7     0.459935429915E+01    0.47412E-05   -0.65900E-05 23752   0.524E-02    0.187E-02
DAV:   8     0.459935214746E+01   -0.21517E-05   -0.57210E-06 21192   0.170E-02    0.713E-03
DAV:   9     0.459935014732E+01   -0.20001E-05   -0.23105E-06 15440   0.164E-02    0.234E-03
DAV:  10     0.459934711073E+01   -0.30366E-05   -0.46343E-07 14936   0.561E-03    0.124E-03
DAV:  11     0.459934443699E+01   -0.26737E-05   -0.14017E-07 14656   0.156E-03    0.865E-04
DAV:  12     0.459934141779E+01   -0.30192E-05   -0.18886E-07 14816   0.195E-03    0.317E-04
DAV:  13     0.459934002185E+01   -0.13959E-05   -0.75564E-08 14968   0.776E-04    0.226E-04
DAV:  14     0.459933939559E+01   -0.62626E-06   -0.27947E-08 14304   0.504E-04
   4 F= 0.20669031E+01 E0= 0.20679974E+01  d E =-.134075E+02  mag=    -0.0000
       N       E                     dE             d eps       ncg     rms          rms(c)
DAV:   1     0.436743341091E+00   -0.41626E+01   -0.13877E+03 20272   0.190E+02    0.831E+00
DAV:   2    -0.894518150466E+00   -0.13313E+01   -0.13739E+01 21320   0.241E+01    0.119E+01
DAV:   3    -0.905229183343E+00   -0.10711E-01   -0.19805E-01 23688   0.288E+00    0.113E+01
DAV:   4    -0.820000629008E+00    0.85229E-01   -0.34417E-01 21224   0.315E+00    0.781E+00
DAV:   5    -0.840380196250E+00   -0.20380E-01   -0.17919E-01 21520   0.227E+00    0.331E+00
DAV:   6    -0.816723345512E+00    0.23657E-01   -0.30587E-02 21952   0.993E-01    0.241E+00
DAV:   7    -0.803213599518E+00    0.13510E-01   -0.21163E-02 21680   0.122E+00    0.168E+00
DAV:   8    -0.798260090040E+00    0.49535E-02   -0.96002E-03 21920   0.563E-01    0.932E-01
DAV:   9    -0.797007425956E+00    0.12527E-02   -0.26565E-03 22960   0.284E-01    0.432E-01
DAV:  10    -0.796707623021E+00    0.29980E-03   -0.15202E-03 21928   0.212E-01    0.474E-02
DAV:  11    -0.796712175422E+00   -0.45524E-05   -0.42854E-05 23384   0.498E-02    0.529E-02
DAV:  12    -0.796710262855E+00    0.19126E-05   -0.13821E-05 22056   0.217E-02    0.229E-02
DAV:  13    -0.796713972145E+00   -0.37093E-05   -0.16881E-05 21624   0.224E-02    0.195E-02
DAV:  14    -0.796713800833E+00    0.17131E-06   -0.21399E-06 17656   0.103E-02
   5 F= -.31991966E+01 E0= -.31982622E+01  d E =-.526610E+01  mag=     0.0000
       N       E                     dE             d eps       ncg     rms          rms(c)
DAV:   1    -0.227786322794E+01   -0.14811E+01   -0.11071E+03 20272   0.167E+02    0.402E+00
DAV:   2    -0.323220563252E+01   -0.95434E+00   -0.97182E+00 21560   0.207E+01    0.717E+00
DAV:   3    -0.323122552565E+01    0.98011E-03   -0.14134E-01 23696   0.244E+00    0.646E+00
DAV:   4    -0.316942967988E+01    0.61796E-01   -0.16995E-01 22136   0.244E+00    0.355E+00
DAV:   5    -0.316788703149E+01    0.15426E-02   -0.68941E-02 21872   0.190E+00    0.145E+00
DAV:   6    -0.316712761319E+01    0.75942E-03   -0.94727E-03 21840   0.888E-01    0.937E-01
DAV:   7    -0.316325731412E+01    0.38703E-02   -0.90179E-03 21664   0.799E-01    0.485E-01
DAV:   8    -0.316263048889E+01    0.62683E-03   -0.25327E-03 22048   0.294E-01    0.206E-01
DAV:   9    -0.316262934049E+01    0.11484E-05   -0.13925E-04 28488   0.753E-02    0.926E-02
DAV:  10    -0.316262979659E+01   -0.45610E-06   -0.20455E-05 22128   0.352E-02    0.318E-02
DAV:  11    -0.316263091736E+01   -0.11208E-05   -0.10126E-05 21872   0.181E-02    0.694E-03
DAV:  12    -0.316263335950E+01   -0.24421E-05   -0.80592E-07 14432   0.497E-03    0.288E-03
DAV:  13    -0.316263475192E+01   -0.13924E-05   -0.16199E-07 13696   0.325E-03    0.715E-04
DAV:  14    -0.316263773336E+01   -0.29814E-05   -0.19705E-07 14600   0.191E-03    0.930E-04
DAV:  15    -0.316263861125E+01   -0.87789E-06   -0.24967E-08 14080   0.808E-04
   6 F= -.54812186E+01 E0= -.54802007E+01  d E =-.754812E+01  mag=    -0.0000
       N       E                     dE             d eps       ncg     rms          rms(c)
DAV:   1     0.104808367311E+02    0.13643E+02   -0.35277E+03 26816   0.311E+02    0.321E+01
DAV:   2    -0.424366818344E+01   -0.14725E+02   -0.14593E+02 21248   0.635E+01    0.187E+01
DAV:   3    -0.423995092578E+01    0.37173E-02   -0.20075E+00 21968   0.107E+01    0.132E+01
DAV:   4    -0.422568477807E+01    0.14266E-01   -0.36283E-01 22664   0.531E+00    0.878E+00
DAV:   5    -0.418630384169E+01    0.39381E-01   -0.30638E-01 21856   0.547E+00    0.252E+00
DAV:   6    -0.418722247226E+01   -0.91863E-03   -0.40680E-02 21336   0.161E+00    0.390E-01
DAV:   7    -0.418670118223E+01    0.52129E-03   -0.20483E-03 23560   0.354E-01    0.251E-01
DAV:   8    -0.418632157545E+01    0.37961E-03   -0.26206E-03 21968   0.340E-01    0.941E-02
DAV:   9    -0.418631031819E+01    0.11257E-04   -0.15994E-04 21776   0.931E-02    0.439E-02
DAV:  10    -0.418631630137E+01   -0.59832E-05   -0.23578E-05 23456   0.451E-02    0.108E-02
DAV:  11    -0.418632598924E+01   -0.96879E-05   -0.31801E-06 16120   0.983E-03    0.402E-03
DAV:  12    -0.418633387569E+01   -0.78864E-05   -0.10427E-06 15320   0.583E-03    0.170E-03
DAV:  13    -0.418634281671E+01   -0.89410E-05   -0.64236E-07 15240   0.408E-03    0.193E-03
DAV:  14    -0.418635030243E+01   -0.74857E-05   -0.93078E-07 15456   0.357E-03    0.102E-03
DAV:  15    -0.418635295678E+01   -0.26543E-05   -0.11973E-07 15160   0.127E-03    0.730E-04
DAV:  16    -0.418635376224E+01   -0.80546E-06   -0.23758E-08 14512   0.564E-04
   7 F= -.64217946E+01 E0= -.64211597E+01  d E =-.848870E+01  mag=     0.0000
       N       E                     dE             d eps       ncg     rms          rms(c)
DAV:   1    -0.676625999464E+01   -0.25799E+01   -0.92870E+02 20272   0.156E+02    0.728E+00
DAV:   2    -0.740792534015E+01   -0.64167E+00   -0.65746E+00 21232   0.182E+01    0.733E+00
DAV:   3    -0.738536284058E+01    0.22562E-01   -0.10960E-01 24168   0.223E+00    0.579E+00
DAV:   4    -0.735274568630E+01    0.32617E-01   -0.23788E-01 21800   0.317E+00    0.718E-01
DAV:   5    -0.734768534994E+01    0.50603E-02   -0.37948E-02 22048   0.207E+00    0.482E-01
DAV:   6    -0.734717244103E+01    0.51291E-03   -0.54545E-03 21712   0.606E-01    0.220E-01
DAV:   7    -0.734623116597E+01    0.94128E-03   -0.37537E-03 21584   0.475E-01    0.765E-02
DAV:   8    -0.734622281770E+01    0.83483E-05   -0.23959E-04 22592   0.112E-01    0.283E-02
DAV:   9    -0.734622625596E+01   -0.34383E-05   -0.35505E-05 23520   0.375E-02    0.156E-02
DAV:  10    -0.734623148825E+01   -0.52323E-05   -0.34769E-06 16360   0.180E-02    0.373E-03
DAV:  11    -0.734623678575E+01   -0.52975E-05   -0.55561E-07 14984   0.576E-03    0.143E-03
DAV:  12    -0.734624217995E+01   -0.53942E-05   -0.19687E-07 15024   0.214E-03    0.151E-03
DAV:  13    -0.734625199164E+01   -0.98117E-05   -0.67722E-07 14976   0.262E-03    0.873E-04
DAV:  14    -0.734625696855E+01   -0.49769E-05   -0.21374E-07 15472   0.175E-03    0.436E-04
DAV:  15    -0.734625916698E+01   -0.21984E-05   -0.56248E-08 14448   0.105E-03    0.275E-04
DAV:  16    -0.734626104763E+01   -0.18806E-05   -0.39636E-08 14384   0.557E-04    0.124E-04
DAV:  17    -0.734626227767E+01   -0.12300E-05   -0.33570E-08 14392   0.508E-04    0.884E-05
DAV:  18    -0.734626284898E+01   -0.57131E-06   -0.19477E-08 14232   0.294E-04
   8 F= -.95134642E+01 E0= -.95125519E+01  d E =-.309167E+01  mag=    -0.0000
       N       E                     dE             d eps       ncg     rms          rms(c)
DAV:   1    -0.765996587991E+01   -0.31370E+00   -0.21601E+03 20272   0.246E+02    0.943E+00
DAV:   2    -0.996179487823E+01   -0.23018E+01   -0.23568E+01 21168   0.317E+01    0.105E+01
DAV:   3    -0.991274318163E+01    0.49052E-01   -0.27700E-01 23976   0.351E+00    0.814E+00
DAV:   4    -0.983789343699E+01    0.74850E-01   -0.26336E-01 21928   0.273E+00    0.226E+00
DAV:   5    -0.983742067825E+01    0.47276E-03   -0.18019E-02 23168   0.810E-01    0.395E-01
DAV:   6    -0.983600566728E+01    0.14150E-02   -0.51050E-03 21744   0.704E-01    0.220E-01
DAV:   7    -0.983563940132E+01    0.36627E-03   -0.39509E-03 22104   0.555E-01    0.189E-01
DAV:   8    -0.983551555967E+01    0.12384E-03   -0.11880E-03 21472   0.281E-01    0.437E-02
DAV:   9    -0.983552135662E+01   -0.57970E-05   -0.87201E-05 22488   0.798E-02    0.134E-02
DAV:  10    -0.983552803589E+01   -0.66793E-05   -0.54081E-06 22184   0.177E-02    0.441E-03
DAV:  11    -0.983553251846E+01   -0.44826E-05   -0.94002E-07 14668   0.829E-03    0.164E-03
DAV:  12    -0.983553874289E+01   -0.62244E-05   -0.37033E-07 14944   0.326E-03    0.107E-03
DAV:  13    -0.983554774599E+01   -0.90031E-05   -0.50226E-07 15136   0.248E-03    0.851E-04
DAV:  14    -0.983555395132E+01   -0.62053E-05   -0.28645E-07 15192   0.163E-03    0.648E-04
DAV:  15    -0.983555699166E+01   -0.30403E-05   -0.10824E-07 14776   0.112E-03    0.238E-04
DAV:  16    -0.983555928141E+01   -0.22897E-05   -0.65261E-08 14272   0.682E-04    0.119E-04
DAV:  17    -0.983556039218E+01   -0.11108E-05   -0.32053E-08 14408   0.442E-04    0.122E-04
DAV:  18    -0.983556091397E+01   -0.52179E-06   -0.18187E-08 14096   0.322E-04
   9 F= -.11920332E+02 E0= -.11919290E+02  d E =-.549854E+01  mag=    -0.0000
       N       E                     dE             d eps       ncg     rms          rms(c)
DAV:   1     0.163145784686E+02    0.26150E+02   -0.61289E+03 25904   0.409E+02    0.514E+01
DAV:   2    -0.135092295701E+02   -0.29824E+02   -0.29044E+02 21184   0.931E+01    0.281E+01
DAV:   3    -0.119800950613E+02    0.15291E+01   -0.40726E+01 24368   0.486E+01    0.200E+01
DAV:   4    -0.115898960673E+02    0.39020E+00   -0.92628E+00 23504   0.266E+01    0.175E+01
DAV:   5    -0.116316457969E+02   -0.41750E-01   -0.91551E-01 22504   0.747E+00    0.113E+01
DAV:   6    -0.114609326731E+02    0.17071E+00   -0.47003E-01 22232   0.676E+00    0.686E+00
DAV:   7    -0.113993409732E+02    0.61592E-01   -0.25113E-01 21872   0.448E+00    0.145E+00
DAV:   8    -0.113931215773E+02    0.62194E-02   -0.32790E-02 23048   0.125E+00    0.498E-01
DAV:   9    -0.113910919199E+02    0.20297E-02   -0.52910E-03 22304   0.677E-01    0.206E-01
DAV:  10    -0.113907653158E+02    0.32660E-03   -0.22729E-03 22528   0.394E-01    0.200E-01
DAV:  11    -0.113907818867E+02   -0.16571E-04   -0.46719E-04 23848   0.193E-01    0.728E-02
DAV:  12    -0.113907618525E+02    0.20034E-04   -0.17760E-04 22040   0.129E-01    0.204E-02
DAV:  13    -0.113907698194E+02   -0.79669E-05   -0.18502E-05 22888   0.344E-02    0.165E-02
DAV:  14    -0.113907901750E+02   -0.20356E-04   -0.16012E-05 21064   0.372E-02    0.832E-03
DAV:  15    -0.113907971224E+02   -0.69473E-05   -0.19293E-06 16184   0.124E-02    0.453E-03
DAV:  16    -0.113908205924E+02   -0.23470E-04   -0.70615E-06 19000   0.164E-02    0.324E-03
DAV:  17    -0.113908268162E+02   -0.62238E-05   -0.63690E-07 15800   0.591E-03    0.179E-03
DAV:  18    -0.113908347745E+02   -0.79583E-05   -0.13765E-07 14056   0.283E-03    0.105E-03
DAV:  19    -0.113908439556E+02   -0.91812E-05   -0.41231E-07 14304   0.512E-03    0.131E-03
DAV:  20    -0.113908463943E+02   -0.24387E-05   -0.59282E-08 13416   0.215E-03    0.625E-04
DAV:  21    -0.113908480995E+02   -0.17051E-05   -0.36572E-08 13696   0.129E-03    0.298E-04
DAV:  22    -0.113908484253E+02   -0.32587E-06   -0.55819E-09 12768   0.374E-04
  10 F= -.13361519E+02 E0= -.13360612E+02  d E =-.693972E+01  mag=     0.0000
       N       E                     dE             d eps       ncg     rms          rms(c)
DAV:   1    -0.113337969025E+02    0.57051E-01   -0.14529E+02 20272   0.582E+01    0.796E-01
DAV:   2    -0.114569411891E+02   -0.12314E+00   -0.12313E+00 20792   0.769E+00    0.793E-01
DAV:   3    -0.114527232522E+02    0.42179E-02   -0.26269E-02 22688   0.106E+00    0.644E-01
DAV:   4    -0.114469644421E+02    0.57588E-02   -0.16281E-02 21928   0.963E-01    0.296E-01
DAV:   5    -0.114458759990E+02    0.10884E-02   -0.14351E-02 22008   0.936E-01    0.131E-01
DAV:   6    -0.114460381416E+02   -0.16214E-03   -0.13452E-03 21464   0.306E-01    0.105E-01
DAV:   7    -0.114458353262E+02    0.20282E-03   -0.39235E-04 22152   0.104E-01    0.356E-02
DAV:   8    -0.114458096041E+02    0.25722E-04   -0.13885E-04 21968   0.849E-02    0.710E-03
DAV:   9    -0.114458103516E+02   -0.74746E-06   -0.74242E-06 22288   0.176E-02
  11 F= -.13402462E+02 E0= -.13401496E+02  d E =-.698067E+01  mag=     0.0000
       N       E                     dE             d eps       ncg     rms          rms(c)
DAV:   1    -0.112672643536E+02    0.17855E+00   -0.30228E+02 20272   0.850E+01    0.106E+00
DAV:   2    -0.115105063706E+02   -0.24324E+00   -0.24362E+00 20808   0.109E+01    0.116E+00
DAV:   3    -0.115035443666E+02    0.69620E-02   -0.46939E-02 23336   0.142E+00    0.926E-01
DAV:   4    -0.114913737773E+02    0.12171E-01   -0.25772E-02 22032   0.110E+00    0.475E-01
DAV:   5    -0.114894797510E+02    0.18940E-02   -0.20054E-02 21864   0.102E+00    0.214E-01
DAV:   6    -0.114896840611E+02   -0.20431E-03   -0.20180E-03 21528   0.389E-01    0.164E-01
DAV:   7    -0.114894557768E+02    0.22828E-03   -0.47930E-04 22352   0.127E-01    0.512E-02
DAV:   8    -0.114894312477E+02    0.24529E-04   -0.12746E-04 22584   0.787E-02    0.144E-02
DAV:   9    -0.114894328882E+02   -0.16404E-05   -0.50923E-06 21720   0.173E-02    0.643E-03
DAV:  10    -0.114894348931E+02   -0.20050E-05   -0.40101E-06 17184   0.125E-02    0.335E-03
DAV:  11    -0.114894368093E+02   -0.19162E-05   -0.81683E-07 14272   0.636E-03    0.120E-03
DAV:  12    -0.114894383492E+02   -0.15398E-05   -0.12749E-07 13896   0.218E-03    0.782E-04
DAV:  13    -0.114894409177E+02   -0.25686E-05   -0.14373E-07 14352   0.152E-03    0.394E-04
DAV:  14    -0.114894420366E+02   -0.11188E-05   -0.36286E-08 13584   0.679E-04    0.354E-04
DAV:  15    -0.114894441035E+02   -0.20669E-05   -0.18673E-07 14040   0.105E-03    0.167E-04
DAV:  16    -0.114894444251E+02   -0.32156E-06   -0.15215E-08 13400   0.453E-04
  12 F= -.13427269E+02 E0= -.13426313E+02  d E =-.700547E+01  mag=     0.0000
       N       E                     dE             d eps       ncg     rms          rms(c)
DAV:   1    -0.114813906885E+02    0.80534E-02   -0.15754E+01 20272   0.189E+01    0.261E-01
DAV:   2    -0.114957941759E+02   -0.14403E-01   -0.14409E-01 20952   0.260E+00    0.228E-01
DAV:   3    -0.114952283282E+02    0.56585E-03   -0.33740E-03 22512   0.376E-01    0.183E-01
DAV:   4    -0.114946752183E+02    0.55311E-03   -0.14889E-03 21952   0.301E-01    0.852E-02
DAV:   5    -0.114945488886E+02    0.12633E-03   -0.15234E-03 22064   0.297E-01    0.342E-02
DAV:   6    -0.114945592874E+02   -0.10399E-04   -0.14735E-04 22104   0.105E-01    0.264E-02
DAV:   7    -0.114945468365E+02    0.12451E-04   -0.16401E-05 22416   0.230E-02    0.134E-02
DAV:   8    -0.114945420982E+02    0.47383E-05   -0.22925E-05 21680   0.261E-02    0.206E-03
DAV:   9    -0.114945421781E+02   -0.79839E-07   -0.61512E-07 12368   0.535E-03
  13 F= -.13428278E+02 E0= -.13427180E+02  d E =-.700648E+01  mag=     0.0000
       N       E                     dE             d eps       ncg     rms          rms(c)
DAV:   1    -0.115605021149E+02   -0.65960E-01   -0.10996E+01 20272   0.160E+01    0.509E-01
DAV:   2    -0.115703447610E+02   -0.98426E-02   -0.10531E-01 21664   0.226E+00    0.359E-01
DAV:   3    -0.115696911941E+02    0.65357E-03   -0.51461E-03 21760   0.512E-01    0.195E-01
DAV:   4    -0.115696921387E+02   -0.94455E-06   -0.31592E-03 22128   0.461E-01    0.729E-02
DAV:   5    -0.115695779962E+02    0.11414E-03   -0.13502E-03 22288   0.348E-01    0.278E-02
DAV:   6    -0.115695457313E+02    0.32265E-04   -0.13182E-04 22136   0.905E-02    0.145E-02
DAV:   7    -0.115695401770E+02    0.55543E-05   -0.32606E-05 23064   0.280E-02    0.503E-03
DAV:   8    -0.115695400409E+02    0.13610E-06   -0.31990E-06 16296   0.148E-02
  14 F= -.13497944E+02 E0= -.13497061E+02  d E =-.696661E-01  mag=     0.0000
       N       E                     dE             d eps       ncg     rms          rms(c)
DAV:   1    -0.116127500062E+02   -0.43210E-01   -0.10101E+02 20272   0.490E+01    0.130E+00
DAV:   2    -0.117020910843E+02   -0.89341E-01   -0.95466E-01 21976   0.681E+00    0.915E-01
DAV:   3    -0.116968674112E+02    0.52237E-02   -0.41544E-02 22152   0.157E+00    0.524E-01
DAV:   4    -0.116963345513E+02    0.53286E-03   -0.28243E-02 22088   0.144E+00    0.284E-01
DAV:   5    -0.116953546632E+02    0.97989E-03   -0.12823E-02 22144   0.110E+00    0.691E-02
DAV:   6    -0.116951682219E+02    0.18644E-03   -0.89664E-04 22112   0.259E-01    0.433E-02
DAV:   7    -0.116951218034E+02    0.46419E-04   -0.22015E-04 23160   0.717E-02    0.185E-02
DAV:   8    -0.116951167284E+02    0.50750E-05   -0.43437E-05 22872   0.547E-02    0.396E-03
DAV:   9    -0.116951169770E+02   -0.24861E-06   -0.34431E-06 17760   0.164E-02
  15 F= -.13609488E+02 E0= -.13608727E+02  d E =-.181210E+00  mag=     0.0000
       N       E                     dE             d eps       ncg     rms          rms(c)
DAV:   1    -0.116975930749E+02   -0.24763E-02   -0.80838E+00 20272   0.137E+01    0.329E-01
DAV:   2    -0.117048571027E+02   -0.72640E-02   -0.77335E-02 22080   0.194E+00    0.236E-01
DAV:   3    -0.117044369040E+02    0.42020E-03   -0.31524E-03 21752   0.428E-01    0.131E-01
DAV:   4    -0.117043622079E+02    0.74696E-04   -0.19254E-03 21720   0.371E-01    0.827E-02
DAV:   5    -0.117042990937E+02    0.63114E-04   -0.93167E-04 22144   0.295E-01    0.196E-02
DAV:   6    -0.117042871879E+02    0.11906E-04   -0.64211E-05 22328   0.705E-02    0.131E-02
DAV:   7    -0.117042819441E+02    0.52438E-05   -0.18628E-05 22864   0.209E-02    0.586E-03
DAV:   8    -0.117042813574E+02    0.58673E-06   -0.36811E-06 18312   0.142E-02
  16 F= -.13615467E+02 E0= -.13614618E+02  d E =-.187189E+00  mag=     0.0000
       N       E                     dE             d eps       ncg     rms          rms(c)
DAV:   1    -0.117205031590E+02   -0.16221E-01   -0.73721E+00 20272   0.130E+01    0.336E-01
DAV:   2    -0.117268638211E+02   -0.63607E-02   -0.65667E-02 21512   0.179E+00    0.234E-01
DAV:   3    -0.117264430842E+02    0.42074E-03   -0.24223E-03 22376   0.385E-01    0.119E-01
DAV:   4    -0.117263628383E+02    0.80246E-04   -0.18501E-03 22288   0.369E-01    0.816E-02
DAV:   5    -0.117263025078E+02    0.60331E-04   -0.86302E-04 22592   0.284E-01    0.185E-02
DAV:   6    -0.117262936360E+02    0.88718E-05   -0.48063E-05 21800   0.650E-02    0.136E-02
DAV:   7    -0.117262900856E+02    0.35504E-05   -0.10671E-05 22240   0.174E-02    0.560E-03
DAV:   8    -0.117262893624E+02    0.72320E-06   -0.43414E-06 21752   0.110E-02
  17 F= -.13637879E+02 E0= -.13637014E+02  d E =-.224122E-01  mag=     0.0000
       N       E                     dE             d eps       ncg     rms          rms(c)
DAV:   1    -0.117068434675E+02    0.19447E-01   -0.58655E+01 20272   0.370E+01    0.917E-01
DAV:   2    -0.117571851211E+02   -0.50342E-01   -0.52127E-01 21352   0.505E+00    0.617E-01
DAV:   3    -0.117540001024E+02    0.31850E-02   -0.17812E-02 22520   0.103E+00    0.329E-01
DAV:   4    -0.117532503478E+02    0.74975E-03   -0.12755E-02 22184   0.942E-01    0.211E-01
DAV:   5    -0.117528727114E+02    0.37764E-03   -0.62823E-03 22448   0.760E-01    0.513E-02
DAV:   6    -0.117528040693E+02    0.68642E-04   -0.40991E-04 21976   0.191E-01    0.390E-02
DAV:   7    -0.117527780600E+02    0.26009E-04   -0.10651E-04 21592   0.508E-02    0.128E-02
DAV:   8    -0.117527753741E+02    0.26859E-05   -0.19447E-05 23384   0.291E-02    0.326E-03
DAV:   9    -0.117527760882E+02   -0.71408E-06   -0.89894E-07 13456   0.803E-03
  18 F= -.13666950E+02 E0= -.13666085E+02  d E =-.514834E-01  mag=     0.0000
       N       E                     dE             d eps       ncg     rms          rms(c)
DAV:   1    -0.117519399692E+02    0.83540E-03   -0.10050E+00 20272   0.481E+00    0.115E-01
DAV:   2    -0.117528085253E+02   -0.86856E-03   -0.89864E-03 21072   0.666E-01    0.807E-02
DAV:   3    -0.117527528569E+02    0.55668E-04   -0.31689E-04 22288   0.140E-01    0.432E-02
DAV:   4    -0.117527383580E+02    0.14499E-04   -0.23278E-04 22168   0.128E-01    0.287E-02
DAV:   5    -0.117527327216E+02    0.56365E-05   -0.11546E-04 22248   0.103E-01    0.667E-03
DAV:   6    -0.117527316987E+02    0.10229E-05   -0.70070E-06 19232   0.252E-02    0.510E-03
DAV:   7    -0.117527315981E+02    0.10053E-06   -0.13607E-06 13736   0.634E-03
  19 F= -.13667417E+02 E0= -.13666555E+02  d E =-.519506E-01  mag=     0.0000
       N       E                     dE             d eps       ncg     rms          rms(c)
DAV:   1    -0.117622482562E+02   -0.95166E-02   -0.79267E+00 20272   0.137E+01    0.193E-01
DAV:   2    -0.117693654606E+02   -0.71172E-02   -0.72429E-02 21368   0.187E+00    0.163E-01
DAV:   3    -0.117690527513E+02    0.31271E-03   -0.16540E-03 22384   0.286E-01    0.116E-01
DAV:   4    -0.117687952004E+02    0.25755E-03   -0.91686E-04 21840   0.236E-01    0.700E-02
DAV:   5    -0.117687285527E+02    0.66648E-04   -0.90496E-04 21592   0.234E-01    0.220E-02
DAV:   6    -0.117687318760E+02   -0.33233E-05   -0.53770E-05 21432   0.617E-02    0.189E-02
DAV:   7    -0.117687251404E+02    0.67356E-05   -0.97187E-06 22960   0.187E-02    0.104E-02
DAV:   8    -0.117687225769E+02    0.25635E-05   -0.14316E-05 21464   0.199E-02    0.125E-03
DAV:   9    -0.117687228541E+02   -0.27725E-06   -0.27312E-07 12584   0.384E-03
  20 F= -.13681459E+02 E0= -.13680588E+02  d E =-.140418E-01  mag=     0.0000
       N       E                     dE             d eps       ncg     rms          rms(c)
DAV:   1    -0.117415664534E+02    0.27156E-01   -0.62003E+01 20272   0.385E+01    0.490E-01
DAV:   2    -0.117962786880E+02   -0.54712E-01   -0.55581E-01 21280   0.519E+00    0.442E-01
DAV:   3    -0.117941655872E+02    0.21131E-02   -0.11750E-02 22912   0.749E-01    0.322E-01
DAV:   4    -0.117920368419E+02    0.21287E-02   -0.59321E-03 21784   0.572E-01    0.191E-01
DAV:   5    -0.117914961201E+02    0.54072E-03   -0.61425E-03 21688   0.596E-01    0.627E-02
DAV:   6    -0.117915511874E+02   -0.55067E-04   -0.46174E-04 21832   0.180E-01    0.565E-02
DAV:   7    -0.117914992687E+02    0.51919E-04   -0.69499E-05 22872   0.499E-02    0.307E-02
DAV:   8    -0.117914801589E+02    0.19110E-04   -0.11620E-04 21640   0.584E-02    0.451E-03
DAV:   9    -0.117914815897E+02   -0.14308E-05   -0.22461E-06 16888   0.104E-02    0.215E-03
DAV:  10    -0.117914833467E+02   -0.17569E-05   -0.34610E-07 13056   0.427E-03    0.976E-04
DAV:  11    -0.117914864537E+02   -0.31071E-05   -0.26385E-07 13984   0.264E-03    0.400E-04
DAV:  12    -0.117914881347E+02   -0.16810E-05   -0.70772E-08 14136   0.123E-03    0.312E-04
DAV:  13    -0.117914898343E+02   -0.16995E-05   -0.81473E-08 13784   0.797E-04    0.151E-04
DAV:  14    -0.117914910604E+02   -0.12262E-05   -0.90687E-08 14448   0.727E-04    0.999E-05
DAV:  15    -0.117914912964E+02   -0.23600E-06   -0.93458E-09 13224   0.343E-04
  21 F= -.13699982E+02 E0= -.13699097E+02  d E =-.325643E-01  mag=     0.0000
       N       E                     dE             d eps       ncg     rms          rms(c)
DAV:   1    -0.118016584586E+02   -0.10167E-01   -0.54716E+00 20272   0.114E+01    0.155E-01
DAV:   2    -0.118066333270E+02   -0.49749E-02   -0.49675E-02 21416   0.155E+00    0.129E-01
DAV:   3    -0.118064197004E+02    0.21363E-03   -0.98013E-04 23184   0.202E-01    0.976E-02
DAV:   4    -0.118061886644E+02    0.23104E-03   -0.88600E-04 21360   0.146E-01    0.205E-02
DAV:   5    -0.118061994102E+02   -0.10746E-04   -0.62241E-05 23304   0.528E-02    0.176E-02
DAV:   6    -0.118061960040E+02    0.34062E-05   -0.13255E-05 21512   0.348E-02    0.130E-02
DAV:   7    -0.118061921847E+02    0.38192E-05   -0.12855E-05 21456   0.208E-02    0.342E-03
DAV:   8    -0.118061919759E+02    0.20886E-06   -0.22402E-06 13928   0.843E-03
  22 F= -.13711064E+02 E0= -.13710167E+02  d E =-.110821E-01  mag=     0.0000
       N       E                     dE             d eps       ncg     rms          rms(c)
DAV:   1    -0.118041879503E+02    0.20042E-02   -0.49630E+01 20272   0.344E+01    0.447E-01
DAV:   2    -0.118487248201E+02   -0.44537E-01   -0.44512E-01 21624   0.465E+00    0.377E-01
DAV:   3    -0.118469025690E+02    0.18223E-02   -0.87298E-03 23080   0.605E-01    0.288E-01
DAV:   4    -0.118448299152E+02    0.20727E-02   -0.72168E-03 21584   0.428E-01    0.715E-02
DAV:   5    -0.118448943041E+02   -0.64389E-04   -0.10145E-03 22384   0.257E-01    0.525E-02
DAV:   6    -0.118448791253E+02    0.15179E-04   -0.20126E-04 22096   0.142E-01    0.417E-02
DAV:   7    -0.118448447008E+02    0.34425E-04   -0.89049E-05 21656   0.518E-02    0.131E-02
DAV:   8    -0.118448414127E+02    0.32881E-05   -0.25551E-05 22240   0.285E-02    0.304E-03
DAV:   9    -0.118448419573E+02   -0.54468E-06   -0.83199E-07 12872   0.650E-03
  23 F= -.13738122E+02 E0= -.13737203E+02  d E =-.381399E-01  mag=     0.0000
       N       E                     dE             d eps       ncg     rms          rms(c)
DAV:   1    -0.117375176813E+02    0.10732E+00   -0.20354E+02 20272   0.706E+01    0.912E-01
DAV:   2    -0.119143571547E+02   -0.17684E+00   -0.17745E+00 21560   0.931E+00    0.731E-01
DAV:   3    -0.119073997011E+02    0.69575E-02   -0.35001E-02 23168   0.123E+00    0.542E-01
DAV:   4    -0.119001308525E+02    0.72688E-02   -0.21775E-02 21768   0.812E-01    0.197E-01
DAV:   5    -0.118999370456E+02    0.19381E-03   -0.64818E-03 22080   0.692E-01    0.987E-02
DAV:   6    -0.118999096874E+02    0.27358E-04   -0.94484E-04 21728   0.312E-01    0.776E-02
DAV:   7    -0.118998666263E+02    0.43061E-04   -0.17522E-04 22544   0.758E-02    0.248E-02
DAV:   8    -0.118998567655E+02    0.98608E-05   -0.59410E-05 22008   0.623E-02    0.542E-03
DAV:   9    -0.118998588130E+02   -0.20475E-05   -0.47082E-06 19960   0.175E-02    0.236E-03
DAV:  10    -0.118998595726E+02   -0.75960E-06   -0.35600E-07 12360   0.602E-03
  24 F= -.13767770E+02 E0= -.13766915E+02  d E =-.677884E-01  mag=     0.0000
       N       E                     dE             d eps       ncg     rms          rms(c)
DAV:   1    -0.112263939521E+02    0.67346E+00   -0.88385E+02 20272   0.154E+02    0.319E+00
DAV:   2    -0.119623000139E+02   -0.73591E+00   -0.74043E+00 21560   0.192E+01    0.169E+00
DAV:   3    -0.119372958926E+02    0.25004E-01   -0.14871E-01 22632   0.279E+00    0.107E+00
DAV:   4    -0.119212430015E+02    0.16053E-01   -0.45728E-02 21640   0.153E+00    0.615E-01
DAV:   5    -0.119180691698E+02    0.31738E-02   -0.33546E-02 21752   0.158E+00    0.221E-01
DAV:   6    -0.119179887960E+02    0.80374E-04   -0.45729E-03 21896   0.705E-01    0.161E-01
DAV:   7    -0.119180477967E+02   -0.59001E-04   -0.47603E-04 22344   0.120E-01    0.362E-02
DAV:   8    -0.119180284583E+02    0.19338E-04   -0.14564E-04 22864   0.136E-01    0.177E-02
DAV:   9    -0.119180322117E+02   -0.37534E-05   -0.16459E-05 22144   0.254E-02    0.809E-03
DAV:  10    -0.119180326297E+02   -0.41799E-06   -0.11110E-06 12960   0.120E-02
  25 F= -.13755752E+02 E0= -.13754374E+02  d E =-.557707E-01  mag=    -0.0000
       N       E                     dE             d eps       ncg     rms          rms(c)
DAV:   1    -0.116105279100E+02    0.30750E+00   -0.38750E+02 20272   0.991E+01    0.138E+00
DAV:   2    -0.119435886757E+02   -0.33306E+00   -0.33572E+00 21584   0.128E+01    0.101E+00
DAV:   3    -0.119321843934E+02    0.11404E-01   -0.63215E-02 23208   0.163E+00    0.698E-01
DAV:   4    -0.119204169932E+02    0.11767E-01   -0.31730E-02 21664   0.902E-01    0.273E-01
DAV:   5    -0.119202256783E+02    0.19131E-03   -0.44212E-03 22208   0.376E-01    0.138E-01
DAV:   6    -0.119202437384E+02   -0.18060E-04   -0.63212E-04 21536   0.247E-01    0.843E-02
DAV:   7    -0.119202149584E+02    0.28780E-04   -0.54193E-04 21616   0.223E-01    0.311E-02
DAV:   8    -0.119202170690E+02   -0.21106E-05   -0.58713E-05 22192   0.775E-02    0.997E-03
DAV:   9    -0.119202175621E+02   -0.49310E-06   -0.27488E-06 18584   0.102E-02
  26 F= -.13773464E+02 E0= -.13772638E+02  d E =-.734825E-01  mag=    -0.0000
       N       E                     dE             d eps       ncg     rms          rms(c)
DAV:   1    -0.118929286455E+02    0.27288E-01   -0.66152E+01 20272   0.397E+01    0.610E-01
DAV:   2    -0.119531497102E+02   -0.60221E-01   -0.61305E-01 21664   0.553E+00    0.496E-01
DAV:   3    -0.119506396169E+02    0.25101E-02   -0.16532E-02 21856   0.970E-01    0.321E-01
DAV:   4    -0.119488025292E+02    0.18371E-02   -0.72335E-03 21832   0.705E-01    0.227E-01
DAV:   5    -0.119483070538E+02    0.49548E-03   -0.65742E-03 21840   0.710E-01    0.536E-02
DAV:   6    -0.119482951866E+02    0.11867E-04   -0.42744E-04 22248   0.193E-01    0.491E-02
DAV:   7    -0.119482750242E+02    0.20162E-04   -0.63745E-05 22504   0.447E-02    0.238E-02
DAV:   8    -0.119482635628E+02    0.11461E-04   -0.56114E-05 21944   0.523E-02    0.271E-03
DAV:   9    -0.119482641255E+02   -0.56270E-06   -0.33159E-06 18200   0.127E-02
  27 F= -.13797692E+02 E0= -.13796851E+02  d E =-.242282E-01  mag=    -0.0000
       N       E                     dE             d eps       ncg     rms          rms(c)
DAV:   1    -0.118570733770E+02    0.91190E-01   -0.12608E+02 20272   0.553E+01    0.986E-01
DAV:   2    -0.119706190908E+02   -0.11355E+00   -0.11631E+00 21416   0.765E+00    0.733E-01
DAV:   3    -0.119654532297E+02    0.51659E-02   -0.35302E-02 22080   0.145E+00    0.442E-01
DAV:   4    -0.119625055763E+02    0.29477E-02   -0.17269E-02 21728   0.116E+00    0.319E-01
DAV:   5    -0.119618049273E+02    0.70065E-03   -0.12385E-02 22096   0.101E+00    0.776E-02
DAV:   6    -0.119616958042E+02    0.10912E-03   -0.82272E-04 22280   0.265E-01    0.628E-02
DAV:   7    -0.119616547966E+02    0.41008E-04   -0.18341E-04 22368   0.707E-02    0.231E-02
DAV:   8    -0.119616459289E+02    0.88676E-05   -0.56501E-05 22936   0.661E-02    0.359E-03
DAV:   9    -0.119616470473E+02   -0.11183E-05   -0.54995E-06 21288   0.159E-02    0.278E-03
DAV:  10    -0.119616473520E+02   -0.30470E-06   -0.20120E-07 12664   0.472E-03
  28 F= -.13813237E+02 E0= -.13812316E+02  d E =-.397728E-01  mag=    -0.0000
       N       E                     dE             d eps       ncg     rms          rms(c)
DAV:   1    -0.119564462563E+02    0.52008E-02   -0.94146E+00 20280   0.148E+01    0.312E-01
DAV:   2    -0.119648757679E+02   -0.84295E-02   -0.85581E-02 21784   0.202E+00    0.196E-01
DAV:   3    -0.119643801900E+02    0.49558E-03   -0.26087E-03 22528   0.313E-01    0.127E-01
DAV:   4    -0.119642433814E+02    0.13681E-03   -0.13585E-03 21984   0.297E-01    0.386E-02
DAV:   5    -0.119642239032E+02    0.19478E-04   -0.45597E-04 22192   0.235E-01    0.196E-02
DAV:   6    -0.119642170435E+02    0.68596E-05   -0.46415E-05 22008   0.624E-02    0.115E-02
DAV:   7    -0.119642152981E+02    0.17455E-05   -0.88694E-06 21872   0.162E-02    0.505E-03
DAV:   8    -0.119642149088E+02    0.38922E-06   -0.30504E-06 17016   0.108E-02
  29 F= -.13821493E+02 E0= -.13820647E+02  d E =-.825606E-02  mag=    -0.0000
       N       E                     dE             d eps       ncg     rms          rms(c)
DAV:   1    -0.119591907826E+02    0.50245E-02   -0.32846E+00 20272   0.876E+00    0.194E-01
DAV:   2    -0.119621279046E+02   -0.29371E-02   -0.29824E-02 21408   0.120E+00    0.122E-01
DAV:   3    -0.119619484130E+02    0.17949E-03   -0.94337E-04 22368   0.187E-01    0.778E-02
DAV:   4    -0.119619104094E+02    0.38004E-04   -0.48848E-04 22064   0.179E-01    0.228E-02
DAV:   5    -0.119619023087E+02    0.81007E-05   -0.16226E-04 22080   0.142E-01    0.117E-02
DAV:   6    -0.119618995620E+02    0.27467E-05   -0.17947E-05 21928   0.379E-02    0.664E-03
DAV:   7    -0.119618993528E+02    0.20924E-06   -0.27878E-06 17504   0.963E-03
  30 F= -.13822965E+02 E0= -.13822134E+02  d E =-.972809E-02  mag=    -0.0000
       N       E                     dE             d eps       ncg     rms          rms(c)
DAV:   1    -0.119597900449E+02    0.21095E-02   -0.77334E+00 20272   0.136E+01    0.199E-01
DAV:   2    -0.119670131679E+02   -0.72231E-02   -0.72528E-02 21256   0.189E+00    0.152E-01
DAV:   3    -0.119666887208E+02    0.32445E-03   -0.22036E-03 22408   0.348E-01    0.113E-01
DAV:   4    -0.119664682189E+02    0.22050E-03   -0.57490E-04 21560   0.224E-01    0.732E-02
DAV:   5    -0.119664061478E+02    0.62071E-04   -0.87658E-04 21464   0.197E-01    0.233E-02
DAV:   6    -0.119663958800E+02    0.10268E-04   -0.52700E-05 22128   0.609E-02    0.140E-02
DAV:   7    -0.119663952823E+02    0.59769E-06   -0.37503E-06 18064   0.120E-02
  31 F= -.13829695E+02 E0= -.13828865E+02  d E =-.673031E-02  mag=     0.0000
       N       E                     dE             d eps       ncg     rms          rms(c)
DAV:   1    -0.119164429639E+02    0.49953E-01   -0.62982E+01 20272   0.389E+01    0.646E-01
DAV:   2    -0.119751288869E+02   -0.58686E-01   -0.59202E-01 21200   0.539E+00    0.437E-01
DAV:   3    -0.119723021439E+02    0.28267E-02   -0.20032E-02 22240   0.107E+00    0.309E-01
DAV:   4    -0.119706254942E+02    0.16766E-02   -0.59232E-03 21616   0.742E-01    0.196E-01
DAV:   5    -0.119702741122E+02    0.35138E-03   -0.59892E-03 21752   0.538E-01    0.636E-02
DAV:   6    -0.119701745536E+02    0.99559E-04   -0.43522E-04 22184   0.153E-01    0.343E-02
DAV:   7    -0.119701713392E+02    0.32144E-05   -0.26462E-05 22976   0.315E-02    0.179E-02
DAV:   8    -0.119701675730E+02    0.37661E-05   -0.25555E-05 21296   0.345E-02    0.217E-03
DAV:   9    -0.119701676832E+02   -0.11014E-06   -0.12277E-06 13888   0.975E-03
  32 F= -.13841912E+02 E0= -.13841054E+02  d E =-.189465E-01  mag=    -0.0000
       N       E                     dE             d eps       ncg     rms          rms(c)
DAV:   1    -0.117062803544E+02    0.26389E+00   -0.25871E+02 20272   0.803E+01    0.171E+00
DAV:   2    -0.119404896286E+02   -0.23421E+00   -0.23817E+00 21184   0.108E+01    0.885E-01
DAV:   3    -0.119283703784E+02    0.12119E-01   -0.96409E-02 21952   0.239E+00    0.581E-01
DAV:   4    -0.119229570426E+02    0.54133E-02   -0.32735E-02 21568   0.185E+00    0.371E-01
DAV:   5    -0.119222084806E+02    0.74856E-03   -0.18234E-02 21880   0.102E+00    0.117E-01
DAV:   6    -0.119217722949E+02    0.43619E-03   -0.18886E-03 22408   0.275E-01    0.649E-02
DAV:   7    -0.119217727077E+02   -0.41278E-06   -0.72584E-05 23568   0.596E-02    0.316E-02
DAV:   8    -0.119217703704E+02    0.23373E-05   -0.27796E-05 21808   0.328E-02    0.739E-03
DAV:   9    -0.119217701219E+02    0.24851E-06   -0.26892E-06 16248   0.132E-02
  33 F= -.13819688E+02 E0= -.13818911E+02  d E =0.327727E-02  mag=    -0.0000
       N       E                     dE             d eps       ncg     rms          rms(c)
DAV:   1    -0.118246299118E+02    0.97140E-01   -0.18467E+02 20272   0.674E+01    0.986E-01
DAV:   2    -0.119820718043E+02   -0.15744E+00   -0.15771E+00 21216   0.884E+00    0.873E-01
DAV:   3    -0.119757518780E+02    0.63199E-02   -0.39417E-02 22856   0.136E+00    0.674E-01
DAV:   4    -0.119693843077E+02    0.63676E-02   -0.20434E-02 21648   0.123E+00    0.357E-01
DAV:   5    -0.119686328354E+02    0.75147E-03   -0.19191E-02 22240   0.115E+00    0.136E-01
DAV:   6    -0.119684307007E+02    0.20213E-03   -0.13620E-03 21936   0.335E-01    0.990E-02
DAV:   7    -0.119682849793E+02    0.14572E-03   -0.28811E-04 22032   0.874E-02    0.456E-02
DAV:   8    -0.119682330562E+02    0.51923E-04   -0.24040E-04 21896   0.965E-02    0.466E-03
DAV:   9    -0.119682339149E+02   -0.85874E-06   -0.77068E-06 21768   0.207E-02
  34 F= -.13843139E+02 E0= -.13842235E+02  d E =-.201741E-01  mag=     0.0000
       N       E                     dE             d eps       ncg     rms          rms(c)
DAV:   1    -0.119685271604E+02   -0.29410E-03   -0.80364E+00 20272   0.138E+01    0.245E-01
DAV:   2    -0.119756133454E+02   -0.70862E-02   -0.71622E-02 21232   0.188E+00    0.173E-01
DAV:   3    -0.119752466151E+02    0.36673E-03   -0.17646E-03 22768   0.264E-01    0.114E-01
DAV:   4    -0.119750350305E+02    0.21158E-03   -0.10036E-03 21824   0.241E-01    0.312E-02
DAV:   5    -0.119750283417E+02    0.66889E-05   -0.29468E-04 22432   0.186E-01    0.223E-02
DAV:   6    -0.119750314719E+02   -0.31302E-05   -0.40281E-05 23112   0.566E-02    0.142E-02
DAV:   7    -0.119750255642E+02    0.59077E-05   -0.12447E-05 22264   0.197E-02    0.480E-03
DAV:   8    -0.119750254509E+02    0.11326E-06   -0.22587E-06 13872   0.876E-03
  35 F= -.13847737E+02 E0= -.13846772E+02  d E =-.459813E-02  mag=     0.0000
       N       E                     dE             d eps       ncg     rms          rms(c)
DAV:   1    -0.119747728897E+02    0.25267E-03   -0.28300E+00 20272   0.821E+00    0.149E-01
DAV:   2    -0.119772686036E+02   -0.24957E-02   -0.25210E-02 21368   0.112E+00    0.104E-01
DAV:   3    -0.119771358251E+02    0.13278E-03   -0.63041E-04 23016   0.158E-01    0.683E-02
DAV:   4    -0.119770642882E+02    0.71537E-04   -0.36802E-04 21768   0.148E-01    0.185E-02
DAV:   5    -0.119770614102E+02    0.28780E-05   -0.10873E-04 22496   0.115E-01    0.133E-02
DAV:   6    -0.119770626050E+02   -0.11948E-05   -0.14091E-05 22680   0.337E-02    0.843E-03
DAV:   7    -0.119770605351E+02    0.20699E-05   -0.42246E-06 21568   0.116E-02    0.292E-03
DAV:   8    -0.119770605561E+02   -0.21043E-07   -0.94674E-07 12344   0.558E-03
  36 F= -.13848644E+02 E0= -.13847654E+02  d E =-.550524E-02  mag=    -0.0000
       N       E                     dE             d eps       ncg     rms          rms(c)
DAV:   1    -0.119722330820E+02    0.48275E-02   -0.67960E+00 20272   0.128E+01    0.233E-01
DAV:   2    -0.119782431821E+02   -0.60101E-02   -0.60269E-02 21552   0.173E+00    0.150E-01
DAV:   3    -0.119779150952E+02    0.32809E-03   -0.14993E-03 23280   0.248E-01    0.102E-01
DAV:   4    -0.119777544632E+02    0.16063E-03   -0.10050E-03 21528   0.251E-01    0.231E-02
DAV:   5    -0.119777415699E+02    0.12893E-04   -0.31025E-04 22112   0.202E-01    0.199E-02
DAV:   6    -0.119777422983E+02   -0.72841E-06   -0.29805E-05 22936   0.501E-02    0.115E-02
DAV:   7    -0.119777404641E+02    0.18342E-05   -0.31977E-06 18000   0.117E-02    0.579E-03
DAV:   8    -0.119777398622E+02    0.60190E-06   -0.44624E-06 21024   0.104E-02
  37 F= -.13851828E+02 E0= -.13850850E+02  d E =-.318362E-02  mag=    -0.0000
       N       E                     dE             d eps       ncg     rms          rms(c)
DAV:   1    -0.119740231554E+02    0.37173E-02   -0.33127E+00 20272   0.893E+00    0.162E-01
DAV:   2    -0.119769493679E+02   -0.29262E-02   -0.29338E-02 21096   0.121E+00    0.105E-01
DAV:   3    -0.119767892877E+02    0.16008E-03   -0.72497E-04 23088   0.173E-01    0.720E-02
DAV:   4    -0.119767116194E+02    0.77668E-04   -0.48937E-04 21568   0.172E-01    0.160E-02
DAV:   5    -0.119767054228E+02    0.61966E-05   -0.14881E-04 22160   0.140E-01    0.140E-02
DAV:   6    -0.119767059281E+02   -0.50528E-06   -0.14768E-05 22360   0.356E-02    0.804E-03
DAV:   7    -0.119767051280E+02    0.80010E-06   -0.15217E-06 15032   0.820E-03
  38 F= -.13852719E+02 E0= -.13851753E+02  d E =-.407437E-02  mag=    -0.0000
       N       E                     dE             d eps       ncg     rms          rms(c)
DAV:   1    -0.119760837279E+02    0.62220E-03   -0.20527E-01 20272   0.222E+00    0.398E-02
DAV:   2    -0.119762651286E+02   -0.18140E-03   -0.18172E-03 21248   0.301E-01    0.267E-02
DAV:   3    -0.119762549352E+02    0.10193E-04   -0.43990E-05 22776   0.426E-02    0.184E-02
DAV:   4    -0.119762506507E+02    0.42845E-05   -0.31431E-05 21568   0.429E-02    0.398E-03
DAV:   5    -0.119762501493E+02    0.50137E-06   -0.91169E-06 14440   0.348E-02
  39 F= -.13852766E+02 E0= -.13851804E+02  d E =-.412172E-02  mag=    -0.0000
       N       E                     dE             d eps       ncg     rms          rms(c)
DAV:   1    -0.119706881660E+02    0.55625E-02   -0.56724E+00 20272   0.114E+01    0.192E-01
DAV:   2    -0.119760564826E+02   -0.53683E-02   -0.54244E-02 21352   0.161E+00    0.146E-01
DAV:   3    -0.119758097623E+02    0.24672E-03   -0.18646E-03 21632   0.330E-01    0.103E-01
DAV:   4    -0.119756539138E+02    0.15585E-03   -0.57486E-04 21352   0.228E-01    0.675E-02
DAV:   5    -0.119756319262E+02    0.21988E-04   -0.61644E-04 21240   0.184E-01    0.233E-02
DAV:   6    -0.119756186450E+02    0.13281E-04   -0.49201E-05 22336   0.549E-02    0.124E-02
DAV:   7    -0.119756175847E+02    0.10602E-05   -0.38470E-06 20216   0.113E-02    0.626E-03
DAV:   8    -0.119756166871E+02    0.89767E-06   -0.48670E-06 20192   0.139E-02
  40 F= -.13854790E+02 E0= -.13853869E+02  d E =-.202437E-02  mag=     0.0000
       N       E                     dE             d eps       ncg     rms          rms(c)
DAV:   1    -0.119696168804E+02    0.60007E-02   -0.48933E+00 20272   0.106E+01    0.182E-01
DAV:   2    -0.119742370702E+02   -0.46202E-02   -0.46671E-02 21272   0.150E+00    0.138E-01
DAV:   3    -0.119740207309E+02    0.21634E-03   -0.16052E-03 21600   0.305E-01    0.970E-02
DAV:   4    -0.119738832263E+02    0.13750E-03   -0.53075E-04 21352   0.219E-01    0.629E-02
DAV:   5    -0.119738679475E+02    0.15279E-04   -0.52950E-04 21240   0.174E-01    0.222E-02
DAV:   6    -0.119738555649E+02    0.12383E-04   -0.44455E-05 22328   0.518E-02    0.117E-02
DAV:   7    -0.119738545953E+02    0.96960E-06   -0.35870E-06 19376   0.108E-02
  41 F= -.13855673E+02 E0= -.13854816E+02  d E =-.290652E-02  mag=     0.0000
       N       E                     dE             d eps       ncg     rms          rms(c)
DAV:   1    -0.119720410575E+02    0.18145E-02   -0.84641E-01 20272   0.441E+00    0.754E-02
DAV:   2    -0.119728377575E+02   -0.79670E-03   -0.80344E-03 21208   0.623E-01    0.590E-02
DAV:   3    -0.119728002276E+02    0.37530E-04   -0.27236E-04 21456   0.126E-01    0.416E-02
DAV:   4    -0.119727765066E+02    0.23721E-04   -0.95606E-05 21272   0.924E-02    0.268E-02
DAV:   5    -0.119727749380E+02    0.15685E-05   -0.94573E-05 21312   0.748E-02    0.952E-03
DAV:   6    -0.119727726717E+02    0.22663E-05   -0.77945E-06 22200   0.219E-02    0.508E-03
DAV:   7    -0.119727725017E+02    0.16996E-06   -0.61702E-07 12128   0.468E-03
  42 F= -.13855741E+02 E0= -.13854913E+02  d E =-.297461E-02  mag=     0.0000
       N       E                     dE             d eps       ncg     rms          rms(c)
DAV:   1    -0.119721771068E+02    0.59556E-03   -0.14348E+00 20272   0.585E+00    0.710E-02
DAV:   2    -0.119734327915E+02   -0.12557E-02   -0.12593E-02 21320   0.791E-01    0.632E-02
DAV:   3    -0.119733814133E+02    0.51378E-04   -0.28067E-04 22304   0.118E-01    0.476E-02
DAV:   4    -0.119733306778E+02    0.50735E-04   -0.11219E-04 21216   0.844E-02    0.286E-02
DAV:   5    -0.119733192278E+02    0.11450E-04   -0.14763E-04 21264   0.876E-02    0.966E-03
DAV:   6    -0.119733189662E+02    0.26161E-06   -0.73247E-06 21672   0.250E-02
  43 F= -.13856504E+02 E0= -.13855695E+02  d E =-.763269E-03  mag=     0.0000
       N       E                     dE             d eps       ncg     rms          rms(c)
DAV:   1    -0.119706007240E+02    0.27185E-02   -0.32584E+00 20272   0.882E+00    0.111E-01
DAV:   2    -0.119734650123E+02   -0.28643E-02   -0.28723E-02 21208   0.119E+00    0.943E-02
DAV:   3    -0.119733481669E+02    0.11685E-03   -0.64634E-04 22512   0.178E-01    0.700E-02
DAV:   4    -0.119732368683E+02    0.11130E-03   -0.27109E-04 21256   0.132E-01    0.412E-02
DAV:   5    -0.119732164765E+02    0.20392E-04   -0.30717E-04 21248   0.130E-01    0.145E-02
DAV:   6    -0.119732152337E+02    0.12428E-05   -0.16192E-05 21864   0.366E-02    0.110E-02
DAV:   7    -0.119732136276E+02    0.16061E-05   -0.30440E-06 17208   0.102E-02    0.600E-03
DAV:   8    -0.119732129315E+02    0.69617E-06   -0.42303E-06 20480   0.136E-02
  44 F= -.13856853E+02 E0= -.13856067E+02  d E =-.111244E-02  mag=    -0.0000
       N       E                     dE             d eps       ncg     rms          rms(c)
DAV:   1    -0.119726386582E+02    0.57497E-03   -0.35466E-01 20280   0.290E+00    0.388E-02
DAV:   2    -0.119729335758E+02   -0.29492E-03   -0.29434E-03 21072   0.384E-01    0.303E-02
DAV:   3    -0.119729182374E+02    0.15338E-04   -0.55349E-05 22960   0.485E-02    0.225E-02
DAV:   4    -0.119729053013E+02    0.12936E-04   -0.58035E-05 21072   0.467E-02    0.519E-03
DAV:   5    -0.119729051909E+02    0.11038E-06   -0.94426E-06 15776   0.331E-02
  45 F= -.13857178E+02 E0= -.13856398E+02  d E =-.324588E-03  mag=    -0.0000
       N       E                     dE             d eps       ncg     rms          rms(c)
DAV:   1    -0.119689135647E+02    0.39917E-02   -0.31927E+00 20272   0.870E+00    0.120E-01
DAV:   2    -0.119715778794E+02   -0.26643E-02   -0.26599E-02 20984   0.115E+00    0.904E-02
DAV:   3    -0.119714414783E+02    0.13640E-03   -0.50846E-04 22840   0.147E-01    0.664E-02
DAV:   4    -0.119713308102E+02    0.11067E-03   -0.50965E-04 21232   0.142E-01    0.162E-02
DAV:   5    -0.119713294887E+02    0.13215E-05   -0.91364E-05 22232   0.102E-01    0.112E-02
DAV:   6    -0.119713296575E+02   -0.16882E-06   -0.80182E-06 19200   0.272E-02
  46 F= -.13857586E+02 E0= -.13856825E+02  d E =-.732787E-03  mag=    -0.0000
       N       E                     dE             d eps       ncg     rms          rms(c)
DAV:   1    -0.119715886468E+02   -0.25916E-03   -0.10141E-01 20272   0.156E+00    0.223E-02
DAV:   2    -0.119716792524E+02   -0.90606E-04   -0.92031E-04 21424   0.214E-01    0.186E-02
DAV:   3    -0.119716757459E+02    0.35065E-05   -0.21014E-05 22664   0.334E-02    0.125E-02
DAV:   4    -0.119716725028E+02    0.32431E-05   -0.94334E-06 21408   0.228E-02    0.792E-03
DAV:   5    -0.119716721556E+02    0.34714E-06   -0.81501E-06 21248   0.244E-02
  47 F= -.13857824E+02 E0= -.13857061E+02  d E =-.237925E-03  mag=     0.0000
       N       E                     dE             d eps       ncg     rms          rms(c)
DAV:   1    -0.119717264758E+02   -0.53973E-04   -0.91341E-01 20272   0.468E+00    0.672E-02
DAV:   2    -0.119725413127E+02   -0.81484E-03   -0.82212E-03 21416   0.639E-01    0.546E-02
DAV:   3    -0.119725078933E+02    0.33419E-04   -0.18185E-04 22584   0.945E-02    0.373E-02
DAV:   4    -0.119724775701E+02    0.30323E-04   -0.91809E-05 21376   0.662E-02    0.208E-02
DAV:   5    -0.119724758299E+02    0.17402E-05   -0.60204E-05 21480   0.675E-02    0.693E-03
DAV:   6    -0.119724753202E+02    0.50978E-06   -0.48734E-06 16328   0.226E-02
  48 F= -.13858344E+02 E0= -.13857576E+02  d E =-.757918E-03  mag=    -0.0000
       N       E                     dE             d eps       ncg     rms          rms(c)
DAV:   1    -0.119700638219E+02    0.24120E-02   -0.36552E+00 20272   0.937E+00    0.130E-01
DAV:   2    -0.119733185881E+02   -0.32548E-02   -0.32792E-02 21200   0.128E+00    0.108E-01
DAV:   3    -0.119731881952E+02    0.13039E-03   -0.71151E-04 22536   0.185E-01    0.752E-02
DAV:   4    -0.119730620646E+02    0.12613E-03   -0.36094E-04 21328   0.128E-01    0.415E-02
DAV:   5    -0.119730530962E+02    0.89684E-05   -0.23935E-04 21344   0.131E-01    0.138E-02
DAV:   6    -0.119730517853E+02    0.13109E-05   -0.19283E-05 21488   0.446E-02    0.117E-02
DAV:   7    -0.119730496584E+02    0.21269E-05   -0.35392E-06 18688   0.104E-02    0.559E-03
DAV:   8    -0.119730489171E+02    0.74130E-06   -0.47939E-06 21264   0.121E-02
  49 F= -.13858489E+02 E0= -.13857710E+02  d E =-.902970E-03  mag=     0.0000
       N       E                     dE             d eps       ncg     rms          rms(c)
DAV:   1    -0.119725784619E+02    0.47120E-03   -0.50035E-01 20272   0.346E+00    0.483E-02
DAV:   2    -0.119730250521E+02   -0.44659E-03   -0.44973E-03 21488   0.473E-01    0.399E-02
DAV:   3    -0.119730066673E+02    0.18385E-04   -0.99093E-05 22432   0.701E-02    0.275E-02
DAV:   4    -0.119729900080E+02    0.16659E-04   -0.48997E-05 21312   0.483E-02    0.156E-02
DAV:   5    -0.119729887583E+02    0.12497E-05   -0.34875E-05 21376   0.503E-02    0.508E-03
DAV:   6    -0.119729885640E+02    0.19428E-06   -0.26772E-06 12864   0.169E-02
  50 F= -.13858566E+02 E0= -.13857791E+02  d E =-.979836E-03  mag=     0.0000
       N       E                     dE             d eps       ncg     rms          rms(c)
DAV:   1    -0.119735445995E+02   -0.55584E-03   -0.14678E-01 20272   0.188E+00    0.252E-02
DAV:   2    -0.119736737462E+02   -0.12915E-03   -0.12952E-03 21344   0.254E-01    0.208E-02
DAV:   3    -0.119736676798E+02    0.60665E-05   -0.26722E-05 23328   0.337E-02    0.155E-02
DAV:   4    -0.119736614413E+02    0.62385E-05   -0.23044E-05 21192   0.241E-02    0.319E-03
DAV:   5    -0.119736616795E+02   -0.23820E-06   -0.14776E-06 12240   0.952E-03
  51 F= -.13858779E+02 E0= -.13858003E+02  d E =-.213096E-03  mag=     0.0000
       N       E                     dE             d eps       ncg     rms          rms(c)
DAV:   1    -0.119742682319E+02   -0.60679E-03   -0.13196E+00 20272   0.563E+00    0.770E-02
DAV:   2    -0.119754448335E+02   -0.11766E-02   -0.11795E-02 21288   0.763E-01    0.604E-02
DAV:   3    -0.119753943658E+02    0.50468E-04   -0.24448E-04 23256   0.101E-01    0.442E-02
DAV:   4    -0.119753445229E+02    0.49843E-04   -0.18662E-04 20768   0.684E-02    0.903E-03
DAV:   5    -0.119753467942E+02   -0.22713E-05   -0.11840E-05 23776   0.211E-02    0.790E-03
DAV:   6    -0.119753460534E+02    0.74080E-06   -0.16703E-06 12632   0.123E-02
  52 F= -.13859121E+02 E0= -.13858341E+02  d E =-.555396E-03  mag=    -0.0000
       N       E                     dE             d eps       ncg     rms          rms(c)
DAV:   1    -0.119756250618E+02   -0.27827E-03   -0.82765E-02 20272   0.141E+00    0.185E-02
DAV:   2    -0.119756992809E+02   -0.74219E-04   -0.74395E-04 21088   0.192E-01    0.153E-02
DAV:   3    -0.119756961213E+02    0.31596E-05   -0.15085E-05 23264   0.253E-02    0.115E-02
DAV:   4    -0.119756926728E+02    0.34485E-05   -0.11979E-05 20624   0.172E-02    0.244E-03
DAV:   5    -0.119756928343E+02   -0.16153E-06   -0.81620E-07 11520   0.494E-03
  53 F= -.13859140E+02 E0= -.13858359E+02  d E =-.574612E-03  mag=    -0.0000
       N       E                     dE             d eps       ncg     rms          rms(c)
DAV:   1    -0.119756710479E+02    0.21625E-04   -0.16026E-01 20272   0.196E+00    0.259E-02
DAV:   2    -0.119758098682E+02   -0.13882E-03   -0.13884E-03 21440   0.263E-01    0.214E-02
DAV:   3    -0.119758038286E+02    0.60396E-05   -0.27276E-05 23016   0.356E-02    0.155E-02
DAV:   4    -0.119757972521E+02    0.65765E-05   -0.18550E-05 21352   0.232E-02    0.569E-03
DAV:   5    -0.119757973333E+02   -0.81228E-07   -0.49891E-06 17336   0.179E-02
  54 F= -.13859331E+02 E0= -.13858551E+02  d E =-.190769E-03  mag=    -0.0000
       N       E                     dE             d eps       ncg     rms          rms(c)
DAV:   1    -0.119748649143E+02    0.93234E-03   -0.14431E+00 20272   0.589E+00    0.777E-02
DAV:   2    -0.119761126774E+02   -0.12478E-02   -0.12490E-02 21072   0.789E-01    0.648E-02
DAV:   3    -0.119760588069E+02    0.53871E-04   -0.24652E-04 23152   0.108E-01    0.466E-02
DAV:   4    -0.119759992277E+02    0.59579E-04   -0.16046E-04 21336   0.705E-02    0.188E-02
DAV:   5    -0.119759988322E+02    0.39545E-06   -0.55445E-05 21560   0.595E-02    0.847E-03
DAV:   6    -0.119759982981E+02    0.53419E-06   -0.53926E-06 15752   0.247E-02
  55 F= -.13859806E+02 E0= -.13859031E+02  d E =-.665153E-03  mag=    -0.0000
       N       E                     dE             d eps       ncg     rms          rms(c)
DAV:   1    -0.119712629159E+02    0.47359E-02   -0.57750E+00 20272   0.118E+01    0.152E-01
DAV:   2    -0.119762446661E+02   -0.49818E-02   -0.49883E-02 20944   0.158E+00    0.130E-01
DAV:   3    -0.119760330497E+02    0.21162E-03   -0.98083E-04 23072   0.215E-01    0.946E-02
DAV:   4    -0.119757862294E+02    0.24682E-03   -0.63290E-04 21328   0.141E-01    0.398E-02
DAV:   5    -0.119757801429E+02    0.60865E-05   -0.24579E-04 21512   0.123E-01    0.171E-02
DAV:   6    -0.119757785217E+02    0.16212E-05   -0.22931E-05 21816   0.499E-02    0.147E-02
DAV:   7    -0.119757755401E+02    0.29816E-05   -0.68260E-06 21272   0.139E-02    0.459E-03
DAV:   8    -0.119757749130E+02    0.62714E-06   -0.33934E-06 17672   0.109E-02
  56 F= -.13860194E+02 E0= -.13859429E+02  d E =-.105350E-02  mag=    -0.0000
       N       E                     dE             d eps       ncg     rms          rms(c)
DAV:   1    -0.119757316865E+02    0.43854E-04   -0.40687E-01 20272   0.312E+00    0.314E-02
DAV:   2    -0.119760797984E+02   -0.34811E-03   -0.34746E-03 21456   0.416E-01    0.312E-02
DAV:   3    -0.119760671825E+02    0.12616E-04   -0.64412E-05 23064   0.545E-02    0.246E-02
DAV:   4    -0.119760481145E+02    0.19068E-04   -0.36628E-05 21368   0.346E-02    0.108E-02
DAV:   5    -0.119760458677E+02    0.22468E-05   -0.22180E-05 21400   0.327E-02    0.437E-03
DAV:   6    -0.119760461063E+02   -0.23868E-06   -0.13710E-06 12400   0.114E-02
  57 F= -.13860454E+02 E0= -.13859688E+02  d E =-.260067E-03  mag=    -0.0000
       N       E                     dE             d eps       ncg     rms          rms(c)
DAV:   1    -0.119738408255E+02    0.22050E-02   -0.36619E+00 20272   0.937E+00    0.960E-02
DAV:   2    -0.119769795455E+02   -0.31387E-02   -0.31318E-02 21000   0.125E+00    0.925E-02
DAV:   3    -0.119768667455E+02    0.11280E-03   -0.58066E-04 23040   0.163E-01    0.724E-02
DAV:   4    -0.119766976739E+02    0.16907E-03   -0.34068E-04 21336   0.103E-01    0.297E-02
DAV:   5    -0.119766831414E+02    0.14532E-04   -0.17263E-04 21488   0.903E-02    0.132E-02
DAV:   6    -0.119766844667E+02   -0.13253E-05   -0.11676E-05 21872   0.332E-02    0.122E-02
DAV:   7    -0.119766828275E+02    0.16392E-05   -0.25149E-06 15080   0.959E-03    0.508E-03
DAV:   8    -0.119766822321E+02    0.59538E-06   -0.36627E-06 18648   0.121E-02
  58 F= -.13861094E+02 E0= -.13860322E+02  d E =-.900144E-03  mag=     0.0000
       N       E                     dE             d eps       ncg     rms          rms(c)
DAV:   1    -0.119655670787E+02    0.11116E-01   -0.14682E+01 20272   0.188E+01    0.192E-01
DAV:   2    -0.119780897794E+02   -0.12523E-01   -0.12496E-01 20856   0.249E+00    0.186E-01
DAV:   3    -0.119776372958E+02    0.45248E-03   -0.23129E-03 23064   0.324E-01    0.146E-01
DAV:   4    -0.119769475783E+02    0.68972E-03   -0.13787E-03 21352   0.203E-01    0.582E-02
DAV:   5    -0.119768919561E+02    0.55622E-04   -0.67389E-04 21520   0.172E-01    0.272E-02
DAV:   6    -0.119768943258E+02   -0.23697E-05   -0.43185E-05 21696   0.660E-02    0.241E-02
DAV:   7    -0.119768888551E+02    0.54707E-05   -0.10615E-05 21480   0.183E-02    0.882E-03
DAV:   8    -0.119768870503E+02    0.18048E-05   -0.10202E-05 21416   0.196E-02    0.202E-03
DAV:   9    -0.119768870835E+02   -0.33237E-07   -0.23635E-07 12624   0.344E-03
  59 F= -.13861476E+02 E0= -.13860687E+02  d E =-.128243E-02  mag=    -0.0000
       N       E                     dE             d eps       ncg     rms          rms(c)
DAV:   1    -0.119759002041E+02    0.98685E-03   -0.13972E+00 20272   0.579E+00    0.594E-02
DAV:   2    -0.119770990533E+02   -0.11988E-02   -0.11969E-02 21224   0.772E-01    0.573E-02
DAV:   3    -0.119770559103E+02    0.43143E-04   -0.22458E-04 22928   0.102E-01    0.446E-02
DAV:   4    -0.119769942895E+02    0.61621E-04   -0.11755E-04 21480   0.646E-02    0.208E-02
DAV:   5    -0.119769858850E+02    0.84045E-05   -0.78552E-05 21504   0.632E-02    0.753E-03
DAV:   6    -0.119769867996E+02   -0.91459E-06   -0.51775E-06 18856   0.209E-02
  60 F= -.13861497E+02 E0= -.13860713E+02  d E =-.130316E-02  mag=    -0.0000
       N       E                     dE             d eps       ncg     rms          rms(c)
DAV:   1    -0.119773510009E+02   -0.36512E-03   -0.63415E-01 20272   0.390E+00    0.417E-02
DAV:   2    -0.119778902620E+02   -0.53926E-03   -0.53875E-03 21216   0.519E-01    0.399E-02
DAV:   3    -0.119778689424E+02    0.21320E-04   -0.10166E-04 23232   0.686E-02    0.315E-02
DAV:   4    -0.119778376524E+02    0.31290E-04   -0.67230E-05 21384   0.452E-02    0.118E-02
DAV:   5    -0.119778354048E+02    0.22476E-05   -0.29673E-05 21488   0.398E-02    0.546E-03
DAV:   6    -0.119778356223E+02   -0.21750E-06   -0.22182E-06 12864   0.149E-02
  61 F= -.13861786E+02 E0= -.13860999E+02  d E =-.289083E-03  mag=    -0.0000
       N       E                     dE             d eps       ncg     rms          rms(c)
DAV:   1    -0.119754003619E+02    0.24350E-02   -0.57067E+00 20272   0.117E+01    0.130E-01
DAV:   2    -0.119803099166E+02   -0.49096E-02   -0.48948E-02 21088   0.156E+00    0.115E-01
DAV:   3    -0.119801211375E+02    0.18878E-03   -0.91928E-04 23176   0.203E-01    0.891E-02
DAV:   4    -0.119798578394E+02    0.26330E-03   -0.67820E-04 21192   0.133E-01    0.232E-02
DAV:   5    -0.119798573650E+02    0.47436E-06   -0.13013E-04 21920   0.714E-02    0.164E-02
DAV:   6    -0.119798568310E+02    0.53403E-06   -0.95573E-06 21400   0.316E-02
  62 F= -.13862188E+02 E0= -.13861390E+02  d E =-.690644E-03  mag=    -0.0000
       N       E                     dE             d eps       ncg     rms          rms(c)
DAV:   1    -0.119799617530E+02   -0.10439E-03   -0.46690E-02 20288   0.106E+00    0.123E-02
DAV:   2    -0.119800036724E+02   -0.41919E-04   -0.42207E-04 21472   0.143E-01    0.953E-03
DAV:   3    -0.119800024371E+02    0.12353E-05   -0.79965E-06 22824   0.188E-02    0.710E-03
DAV:   4    -0.119800008324E+02    0.16047E-05   -0.38418E-06 19792   0.101E-02    0.199E-03
DAV:   5    -0.119800008382E+02   -0.58130E-08   -0.91136E-07 12344   0.532E-03
  63 F= -.13862189E+02 E0= -.13861390E+02  d E =-.692149E-03  mag=    -0.0000
       N       E                     dE             d eps       ncg     rms          rms(c)
DAV:   1    -0.119800443770E+02   -0.43545E-04   -0.93392E-02 20272   0.147E+00    0.166E-02
DAV:   2    -0.119801281505E+02   -0.83774E-04   -0.83793E-04 21568   0.199E-01    0.148E-02
DAV:   3    -0.119801256264E+02    0.25241E-05   -0.17566E-05 22240   0.284E-02    0.111E-02
DAV:   4    -0.119801225950E+02    0.30314E-05   -0.62660E-06 21048   0.174E-02    0.631E-03
DAV:   5    -0.119801220969E+02    0.49811E-06   -0.64597E-06 20992   0.189E-02
  64 F= -.13862297E+02 E0= -.13861501E+02  d E =-.107695E-03  mag=     0.0000
       N       E                     dE             d eps       ncg     rms          rms(c)
DAV:   1    -0.119796999230E+02    0.42267E-03   -0.84100E-01 20272   0.440E+00    0.506E-02
DAV:   2    -0.119804541949E+02   -0.75427E-03   -0.75517E-03 21432   0.599E-01    0.446E-02
DAV:   3    -0.119804311176E+02    0.23077E-04   -0.15885E-04 22320   0.852E-02    0.333E-02
DAV:   4    -0.119804027159E+02    0.28402E-04   -0.58948E-05 21352   0.528E-02    0.185E-02
DAV:   5    -0.119803982363E+02    0.44796E-05   -0.56859E-05 21336   0.565E-02    0.607E-03
DAV:   6    -0.119803986290E+02   -0.39268E-06   -0.35394E-06 15616   0.181E-02
  65 F= -.13862550E+02 E0= -.13861760E+02  d E =-.360505E-03  mag=     0.0000
       N       E                     dE             d eps       ncg     rms          rms(c)
DAV:   1    -0.119776350022E+02    0.27632E-02   -0.33656E+00 20272   0.881E+00    0.102E-01
DAV:   2    -0.119806548681E+02   -0.30199E-02   -0.30240E-02 21304   0.120E+00    0.898E-02
DAV:   3    -0.119805605823E+02    0.94286E-04   -0.63722E-04 22136   0.170E-01    0.670E-02
DAV:   4    -0.119804454172E+02    0.11517E-03   -0.23992E-04 21280   0.106E-01    0.370E-02
DAV:   5    -0.119804274968E+02    0.17920E-04   -0.23084E-04 21296   0.113E-01    0.124E-02
DAV:   6    -0.119804283288E+02   -0.83199E-06   -0.14820E-05 21480   0.374E-02    0.112E-02
DAV:   7    -0.119804267354E+02    0.15933E-05   -0.23132E-06 14600   0.933E-03    0.593E-03
DAV:   8    -0.119804259715E+02    0.76396E-06   -0.49343E-06 20848   0.132E-02
  66 F= -.13862606E+02 E0= -.13861827E+02  d E =-.416516E-03  mag=    -0.0000
       N       E                     dE             d eps       ncg     rms          rms(c)
DAV:   1    -0.119799657513E+02    0.46098E-03   -0.64410E-01 20272   0.385E+00    0.437E-02
DAV:   2    -0.119805400482E+02   -0.57430E-03   -0.57497E-03 21704   0.522E-01    0.393E-02
DAV:   3    -0.119805217782E+02    0.18270E-04   -0.11959E-04 22272   0.734E-02    0.298E-02
DAV:   4    -0.119804982954E+02    0.23483E-04   -0.48394E-05 21376   0.461E-02    0.158E-02
DAV:   5    -0.119804949591E+02    0.33362E-05   -0.42353E-05 21336   0.489E-02    0.552E-03
DAV:   6    -0.119804952218E+02   -0.26270E-06   -0.26882E-06 13096   0.160E-02
  67 F= -.13862650E+02 E0= -.13861867E+02  d E =-.460759E-03  mag=    -0.0000
       N       E                     dE             d eps       ncg     rms          rms(c)
DAV:   1    -0.119798723006E+02    0.62266E-03   -0.22921E-01 20272   0.232E+00    0.326E-02
DAV:   2    -0.119800765517E+02   -0.20425E-03   -0.20471E-03 21544   0.315E-01    0.255E-02
DAV:   3    -0.119800674792E+02    0.90725E-05   -0.44944E-05 23248   0.436E-02    0.188E-02
DAV:   4    -0.119800593199E+02    0.81593E-05   -0.33278E-05 21328   0.324E-02    0.442E-03
DAV:   5    -0.119800594886E+02   -0.16867E-06   -0.49764E-06 13192   0.231E-02
  68 F= -.13862776E+02 E0= -.13861998E+02  d E =-.126492E-03  mag=    -0.0000
       N       E                     dE             d eps       ncg     rms          rms(c)
DAV:   1    -0.119791939555E+02    0.86536E-03   -0.30180E-01 20272   0.267E+00    0.392E-02
DAV:   2    -0.119794672521E+02   -0.27330E-03   -0.27466E-03 21752   0.362E-01    0.280E-02
DAV:   3    -0.119794567194E+02    0.10533E-04   -0.60464E-05 23184   0.501E-02    0.202E-02
DAV:   4    -0.119794481857E+02    0.85337E-05   -0.36820E-05 21224   0.330E-02    0.430E-03
DAV:   5    -0.119794485087E+02   -0.32305E-06   -0.40018E-06 13064   0.207E-02
  69 F= -.13862823E+02 E0= -.13862049E+02  d E =-.173252E-03  mag=    -0.0000
       N       E                     dE             d eps       ncg     rms          rms(c)
DAV:   1    -0.119794208237E+02    0.27362E-04   -0.37646E-02 20272   0.948E-01    0.145E-02
DAV:   2    -0.119794543125E+02   -0.33489E-04   -0.33796E-04 21272   0.128E-01    0.102E-02
DAV:   3    -0.119794530588E+02    0.12537E-05   -0.70197E-06 22376   0.178E-02    0.685E-03
DAV:   4    -0.119794520657E+02    0.99304E-06   -0.33285E-06 17720   0.945E-03
  70 F= -.13862852E+02 E0= -.13862078E+02  d E =-.290906E-04  mag=     0.0000
       N       E                     dE             d eps       ncg     rms          rms(c)
DAV:   1    -0.119791407409E+02    0.31232E-03   -0.33930E-01 20272   0.285E+00    0.421E-02
DAV:   2    -0.119794393691E+02   -0.29863E-03   -0.29952E-03 21368   0.384E-01    0.317E-02
DAV:   3    -0.119794266944E+02    0.12675E-04   -0.62932E-05 22800   0.531E-02    0.217E-02
DAV:   4    -0.119794152211E+02    0.11473E-04   -0.35897E-05 21216   0.301E-02    0.656E-03
DAV:   5    -0.119794158064E+02   -0.58525E-06   -0.52489E-06 20408   0.148E-02
  71 F= -.13862898E+02 E0= -.13862125E+02  d E =-.746939E-04  mag=    -0.0000
       N       E                     dE             d eps       ncg     rms          rms(c)
DAV:   1    -0.119793570449E+02    0.58176E-04   -0.40220E-02 20336   0.980E-01    0.163E-02
DAV:   2    -0.119793933196E+02   -0.36275E-04   -0.36444E-04 21896   0.133E-01    0.104E-02
DAV:   3    -0.119793918717E+02    0.14479E-05   -0.79571E-06 22080   0.184E-02    0.708E-03
DAV:   4    -0.119793910209E+02    0.85082E-06   -0.48846E-06 20952   0.131E-02
  72 F= -.13862903E+02 E0= -.13862130E+02  d E =-.799396E-04  mag=     0.0000
       N       E                     dE             d eps       ncg     rms          rms(c)
DAV:   1    -0.119794433837E+02   -0.51512E-04   -0.93089E-02 20360   0.149E+00    0.208E-02
DAV:   2    -0.119795287169E+02   -0.85333E-04   -0.85991E-04 21456   0.206E-01    0.173E-02
DAV:   3    -0.119795252643E+02    0.34526E-05   -0.22158E-05 22368   0.337E-02    0.123E-02
DAV:   4    -0.119795225182E+02    0.27462E-05   -0.82724E-06 21384   0.240E-02    0.759E-03
DAV:   5    -0.119795221090E+02    0.40918E-06   -0.90563E-06 21216   0.234E-02
  73 F= -.13862944E+02 E0= -.13862174E+02  d E =-.412250E-04  mag=     0.0000
