<?xml version="1.0" encoding="ISO-8859-1"?>
<modeling>
 <generator>
  <i name="program" type="string">vasp </i>
  <i name="version" type="string">5.4.1  </i>
  <i name="subversion" type="string">05Feb16 (build Sep 09 2016 09:44:48) complex                          parallel </i>
  <i name="platform" type="string">IFC91_ompi </i>
  <i name="date" type="string">2023 02 19 </i>
  <i name="time" type="string">02:32:45 </i>
 </generator>
 <incar>
  <i type="string" name="SYSTEM"> Slab Fe 1x1 4Layers</i>
  <i type="int" name="ISTART">     0</i>
  <i type="string" name="PREC">accurate</i>
  <i type="int" name="ISPIN">     2</i>
  <i type="int" name="ICHARG">     2</i>
  <i type="int" name="NELM">   100</i>
  <i type="int" name="IBRION">     2</i>
  <i name="EDIFF">      0.00000100</i>
  <i name="EDIFFG">     -0.01000000</i>
  <i type="int" name="NSW">  5000</i>
  <i type="int" name="ISIF">     2</i>
  <i type="int" name="ISYM">     0</i>
  <i name="ENCUT">    450.00000000</i>
  <i name="POTIM">      0.25000000</i>
  <i type="string" name="LREAL"> Auto</i>
  <i type="int" name="ISMEAR">     0</i>
  <i name="SIGMA">      0.05000000</i>
  <i type="int" name="NWRITE">     2</i>
  <i type="logical" name="LWAVE"> F  </i>
  <i type="logical" name="LCHARG"> F  </i>
  <v type="int" name="KPOINT_BSE">    -1     0     0     0</v>
  <i type="int" name="NELM">   100</i>
  <i type="int" name="IDIPOL">     3</i>
 </incar>
 <kpoints>
  <generation param="Monkhorst-Pack">
   <v type="int" name="divisions">      19       19        1 </v>
   <v name="usershift">      0.00000000       0.00000000       0.00000000 </v>
   <v name="genvec1">      0.05263158       0.00000000       0.00000000 </v>
   <v name="genvec2">      0.00000000       0.05263158       0.00000000 </v>
   <v name="genvec3">      0.00000000       0.00000000       1.00000000 </v>
   <v name="shift">      0.00000000       0.00000000       0.00000000 </v>
  </generation>
  <varray name="kpointlist" >
   <v>       0.00000000       0.00000000       0.00000000 </v>
   <v>       0.05263158       0.00000000       0.00000000 </v>
   <v>       0.10526316       0.00000000       0.00000000 </v>
   <v>       0.15789474       0.00000000       0.00000000 </v>
   <v>       0.21052632       0.00000000       0.00000000 </v>
   <v>       0.26315789       0.00000000       0.00000000 </v>
   <v>       0.31578947       0.00000000       0.00000000 </v>
   <v>       0.36842105       0.00000000       0.00000000 </v>
   <v>       0.42105263       0.00000000       0.00000000 </v>
   <v>       0.47368421       0.00000000       0.00000000 </v>
   <v>       0.00000000       0.05263158       0.00000000 </v>
   <v>       0.05263158       0.05263158       0.00000000 </v>
   <v>       0.10526316       0.05263158       0.00000000 </v>
   <v>       0.15789474       0.05263158       0.00000000 </v>
   <v>       0.21052632       0.05263158       0.00000000 </v>
   <v>       0.26315789       0.05263158       0.00000000 </v>
   <v>       0.31578947       0.05263158       0.00000000 </v>
   <v>       0.36842105       0.05263158       0.00000000 </v>
   <v>       0.42105263       0.05263158       0.00000000 </v>
   <v>       0.47368421       0.05263158       0.00000000 </v>
   <v>      -0.47368421       0.05263158       0.00000000 </v>
   <v>      -0.42105263       0.05263158       0.00000000 </v>
   <v>      -0.36842105       0.05263158       0.00000000 </v>
   <v>      -0.31578947       0.05263158       0.00000000 </v>
   <v>      -0.26315789       0.05263158       0.00000000 </v>
   <v>      -0.21052632       0.05263158       0.00000000 </v>
   <v>      -0.15789474       0.05263158       0.00000000 </v>
   <v>      -0.10526316       0.05263158       0.00000000 </v>
   <v>      -0.05263158       0.05263158       0.00000000 </v>
   <v>       0.00000000       0.10526316       0.00000000 </v>
   <v>       0.05263158       0.10526316       0.00000000 </v>
   <v>       0.10526316       0.10526316       0.00000000 </v>
   <v>       0.15789474       0.10526316       0.00000000 </v>
   <v>       0.21052632       0.10526316       0.00000000 </v>
   <v>       0.26315789       0.10526316       0.00000000 </v>
   <v>       0.31578947       0.10526316       0.00000000 </v>
   <v>       0.36842105       0.10526316       0.00000000 </v>
   <v>       0.42105263       0.10526316       0.00000000 </v>
   <v>       0.47368421       0.10526316       0.00000000 </v>
   <v>      -0.47368421       0.10526316       0.00000000 </v>
   <v>      -0.42105263       0.10526316       0.00000000 </v>
   <v>      -0.36842105       0.10526316       0.00000000 </v>
   <v>      -0.31578947       0.10526316       0.00000000 </v>
   <v>      -0.26315789       0.10526316       0.00000000 </v>
   <v>      -0.21052632       0.10526316       0.00000000 </v>
   <v>      -0.15789474       0.10526316       0.00000000 </v>
   <v>      -0.10526316       0.10526316       0.00000000 </v>
   <v>      -0.05263158       0.10526316       0.00000000 </v>
   <v>       0.00000000       0.15789474       0.00000000 </v>
   <v>       0.05263158       0.15789474       0.00000000 </v>
   <v>       0.10526316       0.15789474       0.00000000 </v>
   <v>       0.15789474       0.15789474       0.00000000 </v>
   <v>       0.21052632       0.15789474       0.00000000 </v>
   <v>       0.26315789       0.15789474       0.00000000 </v>
   <v>       0.31578947       0.15789474       0.00000000 </v>
   <v>       0.36842105       0.15789474       0.00000000 </v>
   <v>       0.42105263       0.15789474       0.00000000 </v>
   <v>       0.47368421       0.15789474       0.00000000 </v>
   <v>      -0.47368421       0.15789474       0.00000000 </v>
   <v>      -0.42105263       0.15789474       0.00000000 </v>
   <v>      -0.36842105       0.15789474       0.00000000 </v>
   <v>      -0.31578947       0.15789474       0.00000000 </v>
   <v>      -0.26315789       0.15789474       0.00000000 </v>
   <v>      -0.21052632       0.15789474       0.00000000 </v>
   <v>      -0.15789474       0.15789474       0.00000000 </v>
   <v>      -0.10526316       0.15789474       0.00000000 </v>
   <v>      -0.05263158       0.15789474       0.00000000 </v>
   <v>       0.00000000       0.21052632       0.00000000 </v>
   <v>       0.05263158       0.21052632       0.00000000 </v>
   <v>       0.10526316       0.21052632       0.00000000 </v>
   <v>       0.15789474       0.21052632       0.00000000 </v>
   <v>       0.21052632       0.21052632       0.00000000 </v>
   <v>       0.26315789       0.21052632       0.00000000 </v>
   <v>       0.31578947       0.21052632       0.00000000 </v>
   <v>       0.36842105       0.21052632       0.00000000 </v>
   <v>       0.42105263       0.21052632       0.00000000 </v>
   <v>       0.47368421       0.21052632       0.00000000 </v>
   <v>      -0.47368421       0.21052632       0.00000000 </v>
   <v>      -0.42105263       0.21052632       0.00000000 </v>
   <v>      -0.36842105       0.21052632       0.00000000 </v>
   <v>      -0.31578947       0.21052632       0.00000000 </v>
   <v>      -0.26315789       0.21052632       0.00000000 </v>
   <v>      -0.21052632       0.21052632       0.00000000 </v>
   <v>      -0.15789474       0.21052632       0.00000000 </v>
   <v>      -0.10526316       0.21052632       0.00000000 </v>
   <v>      -0.05263158       0.21052632       0.00000000 </v>
   <v>       0.00000000       0.26315789       0.00000000 </v>
   <v>       0.05263158       0.26315789       0.00000000 </v>
   <v>       0.10526316       0.26315789       0.00000000 </v>
   <v>       0.15789474       0.26315789       0.00000000 </v>
   <v>       0.21052632       0.26315789       0.00000000 </v>
   <v>       0.26315789       0.26315789       0.00000000 </v>
   <v>       0.31578947       0.26315789       0.00000000 </v>
   <v>       0.36842105       0.26315789       0.00000000 </v>
   <v>       0.42105263       0.26315789       0.00000000 </v>
   <v>       0.47368421       0.26315789       0.00000000 </v>
   <v>      -0.47368421       0.26315789       0.00000000 </v>
   <v>      -0.42105263       0.26315789       0.00000000 </v>
   <v>      -0.36842105       0.26315789       0.00000000 </v>
   <v>      -0.31578947       0.26315789       0.00000000 </v>
   <v>      -0.26315789       0.26315789       0.00000000 </v>
   <v>      -0.21052632       0.26315789       0.00000000 </v>
   <v>      -0.15789474       0.26315789       0.00000000 </v>
   <v>      -0.10526316       0.26315789       0.00000000 </v>
   <v>      -0.05263158       0.26315789       0.00000000 </v>
   <v>       0.00000000       0.31578947       0.00000000 </v>
   <v>       0.05263158       0.31578947       0.00000000 </v>
   <v>       0.10526316       0.31578947       0.00000000 </v>
   <v>       0.15789474       0.31578947       0.00000000 </v>
   <v>       0.21052632       0.31578947       0.00000000 </v>
   <v>       0.26315789       0.31578947       0.00000000 </v>
   <v>       0.31578947       0.31578947       0.00000000 </v>
   <v>       0.36842105       0.31578947       0.00000000 </v>
   <v>       0.42105263       0.31578947       0.00000000 </v>
   <v>       0.47368421       0.31578947       0.00000000 </v>
   <v>      -0.47368421       0.31578947       0.00000000 </v>
   <v>      -0.42105263       0.31578947       0.00000000 </v>
   <v>      -0.36842105       0.31578947       0.00000000 </v>
   <v>      -0.31578947       0.31578947       0.00000000 </v>
   <v>      -0.26315789       0.31578947       0.00000000 </v>
   <v>      -0.21052632       0.31578947       0.00000000 </v>
   <v>      -0.15789474       0.31578947       0.00000000 </v>
   <v>      -0.10526316       0.31578947       0.00000000 </v>
   <v>      -0.05263158       0.31578947       0.00000000 </v>
   <v>       0.00000000       0.36842105       0.00000000 </v>
   <v>       0.05263158       0.36842105       0.00000000 </v>
   <v>       0.10526316       0.36842105       0.00000000 </v>
   <v>       0.15789474       0.36842105       0.00000000 </v>
   <v>       0.21052632       0.36842105       0.00000000 </v>
   <v>       0.26315789       0.36842105       0.00000000 </v>
   <v>       0.31578947       0.36842105       0.00000000 </v>
   <v>       0.36842105       0.36842105       0.00000000 </v>
   <v>       0.42105263       0.36842105       0.00000000 </v>
   <v>       0.47368421       0.36842105       0.00000000 </v>
   <v>      -0.47368421       0.36842105       0.00000000 </v>
   <v>      -0.42105263       0.36842105       0.00000000 </v>
   <v>      -0.36842105       0.36842105       0.00000000 </v>
   <v>      -0.31578947       0.36842105       0.00000000 </v>
   <v>      -0.26315789       0.36842105       0.00000000 </v>
   <v>      -0.21052632       0.36842105       0.00000000 </v>
   <v>      -0.15789474       0.36842105       0.00000000 </v>
   <v>      -0.10526316       0.36842105       0.00000000 </v>
   <v>      -0.05263158       0.36842105       0.00000000 </v>
   <v>       0.00000000       0.42105263       0.00000000 </v>
   <v>       0.05263158       0.42105263       0.00000000 </v>
   <v>       0.10526316       0.42105263       0.00000000 </v>
   <v>       0.15789474       0.42105263       0.00000000 </v>
   <v>       0.21052632       0.42105263       0.00000000 </v>
   <v>       0.26315789       0.42105263       0.00000000 </v>
   <v>       0.31578947       0.42105263       0.00000000 </v>
   <v>       0.36842105       0.42105263       0.00000000 </v>
   <v>       0.42105263       0.42105263       0.00000000 </v>
   <v>       0.47368421       0.42105263       0.00000000 </v>
   <v>      -0.47368421       0.42105263       0.00000000 </v>
   <v>      -0.42105263       0.42105263       0.00000000 </v>
   <v>      -0.36842105       0.42105263       0.00000000 </v>
   <v>      -0.31578947       0.42105263       0.00000000 </v>
   <v>      -0.26315789       0.42105263       0.00000000 </v>
   <v>      -0.21052632       0.42105263       0.00000000 </v>
   <v>      -0.15789474       0.42105263       0.00000000 </v>
   <v>      -0.10526316       0.42105263       0.00000000 </v>
   <v>      -0.05263158       0.42105263       0.00000000 </v>
   <v>       0.00000000       0.47368421       0.00000000 </v>
   <v>       0.05263158       0.47368421       0.00000000 </v>
   <v>       0.10526316       0.47368421       0.00000000 </v>
   <v>       0.15789474       0.47368421       0.00000000 </v>
   <v>       0.21052632       0.47368421       0.00000000 </v>
   <v>       0.26315789       0.47368421       0.00000000 </v>
   <v>       0.31578947       0.47368421       0.00000000 </v>
   <v>       0.36842105       0.47368421       0.00000000 </v>
   <v>       0.42105263       0.47368421       0.00000000 </v>
   <v>       0.47368421       0.47368421       0.00000000 </v>
   <v>      -0.47368421       0.47368421       0.00000000 </v>
   <v>      -0.42105263       0.47368421       0.00000000 </v>
   <v>      -0.36842105       0.47368421       0.00000000 </v>
   <v>      -0.31578947       0.47368421       0.00000000 </v>
   <v>      -0.26315789       0.47368421       0.00000000 </v>
   <v>      -0.21052632       0.47368421       0.00000000 </v>
   <v>      -0.15789474       0.47368421       0.00000000 </v>
   <v>      -0.10526316       0.47368421       0.00000000 </v>
   <v>      -0.05263158       0.47368421       0.00000000 </v>
  </varray>
  <varray name="weights" >
   <v>       0.00277008 </v>
   <v>       0.00554017 </v>
   <v>       0.00554017 </v>
   <v>       0.00554017 </v>
   <v>       0.00554017 </v>
   <v>       0.00554017 </v>
   <v>       0.00554017 </v>
   <v>       0.00554017 </v>
   <v>       0.00554017 </v>
   <v>       0.00554017 </v>
   <v>       0.00554017 </v>
   <v>       0.00554017 </v>
   <v>       0.00554017 </v>
   <v>       0.00554017 </v>
   <v>       0.00554017 </v>
   <v>       0.00554017 </v>
   <v>       0.00554017 </v>
   <v>       0.00554017 </v>
   <v>       0.00554017 </v>
   <v>       0.00554017 </v>
   <v>       0.00554017 </v>
   <v>       0.00554017 </v>
   <v>       0.00554017 </v>
   <v>       0.00554017 </v>
   <v>       0.00554017 </v>
   <v>       0.00554017 </v>
   <v>       0.00554017 </v>
   <v>       0.00554017 </v>
   <v>       0.00554017 </v>
   <v>       0.00554017 </v>
   <v>       0.00554017 </v>
   <v>       0.00554017 </v>
   <v>       0.00554017 </v>
   <v>       0.00554017 </v>
   <v>       0.00554017 </v>
   <v>       0.00554017 </v>
   <v>       0.00554017 </v>
   <v>       0.00554017 </v>
   <v>       0.00554017 </v>
   <v>       0.00554017 </v>
   <v>       0.00554017 </v>
   <v>       0.00554017 </v>
   <v>       0.00554017 </v>
   <v>       0.00554017 </v>
   <v>       0.00554017 </v>
   <v>       0.00554017 </v>
   <v>       0.00554017 </v>
   <v>       0.00554017 </v>
   <v>       0.00554017 </v>
   <v>       0.00554017 </v>
   <v>       0.00554017 </v>
   <v>       0.00554017 </v>
   <v>       0.00554017 </v>
   <v>       0.00554017 </v>
   <v>       0.00554017 </v>
   <v>       0.00554017 </v>
   <v>       0.00554017 </v>
   <v>       0.00554017 </v>
   <v>       0.00554017 </v>
   <v>       0.00554017 </v>
   <v>       0.00554017 </v>
   <v>       0.00554017 </v>
   <v>       0.00554017 </v>
   <v>       0.00554017 </v>
   <v>       0.00554017 </v>
   <v>       0.00554017 </v>
   <v>       0.00554017 </v>
   <v>       0.00554017 </v>
   <v>       0.00554017 </v>
   <v>       0.00554017 </v>
   <v>       0.00554017 </v>
   <v>       0.00554017 </v>
   <v>       0.00554017 </v>
   <v>       0.00554017 </v>
   <v>       0.00554017 </v>
   <v>       0.00554017 </v>
   <v>       0.00554017 </v>
   <v>       0.00554017 </v>
   <v>       0.00554017 </v>
   <v>       0.00554017 </v>
   <v>       0.00554017 </v>
   <v>       0.00554017 </v>
   <v>       0.00554017 </v>
   <v>       0.00554017 </v>
   <v>       0.00554017 </v>
   <v>       0.00554017 </v>
   <v>       0.00554017 </v>
   <v>       0.00554017 </v>
   <v>       0.00554017 </v>
   <v>       0.00554017 </v>
   <v>       0.00554017 </v>
   <v>       0.00554017 </v>
   <v>       0.00554017 </v>
   <v>       0.00554017 </v>
   <v>       0.00554017 </v>
   <v>       0.00554017 </v>
   <v>       0.00554017 </v>
   <v>       0.00554017 </v>
   <v>       0.00554017 </v>
   <v>       0.00554017 </v>
   <v>       0.00554017 </v>
   <v>       0.00554017 </v>
   <v>       0.00554017 </v>
   <v>       0.00554017 </v>
   <v>       0.00554017 </v>
   <v>       0.00554017 </v>
   <v>       0.00554017 </v>
   <v>       0.00554017 </v>
   <v>       0.00554017 </v>
   <v>       0.00554017 </v>
   <v>       0.00554017 </v>
   <v>       0.00554017 </v>
   <v>       0.00554017 </v>
   <v>       0.00554017 </v>
   <v>       0.00554017 </v>
   <v>       0.00554017 </v>
   <v>       0.00554017 </v>
   <v>       0.00554017 </v>
   <v>       0.00554017 </v>
   <v>       0.00554017 </v>
   <v>       0.00554017 </v>
   <v>       0.00554017 </v>
   <v>       0.00554017 </v>
   <v>       0.00554017 </v>
   <v>       0.00554017 </v>
   <v>       0.00554017 </v>
   <v>       0.00554017 </v>
   <v>       0.00554017 </v>
   <v>       0.00554017 </v>
   <v>       0.00554017 </v>
   <v>       0.00554017 </v>
   <v>       0.00554017 </v>
   <v>       0.00554017 </v>
   <v>       0.00554017 </v>
   <v>       0.00554017 </v>
   <v>       0.00554017 </v>
   <v>       0.00554017 </v>
   <v>       0.00554017 </v>
   <v>       0.00554017 </v>
   <v>       0.00554017 </v>
   <v>       0.00554017 </v>
   <v>       0.00554017 </v>
   <v>       0.00554017 </v>
   <v>       0.00554017 </v>
   <v>       0.00554017 </v>
   <v>       0.00554017 </v>
   <v>       0.00554017 </v>
   <v>       0.00554017 </v>
   <v>       0.00554017 </v>
   <v>       0.00554017 </v>
   <v>       0.00554017 </v>
   <v>       0.00554017 </v>
   <v>       0.00554017 </v>
   <v>       0.00554017 </v>
   <v>       0.00554017 </v>
   <v>       0.00554017 </v>
   <v>       0.00554017 </v>
   <v>       0.00554017 </v>
   <v>       0.00554017 </v>
   <v>       0.00554017 </v>
   <v>       0.00554017 </v>
   <v>       0.00554017 </v>
   <v>       0.00554017 </v>
   <v>       0.00554017 </v>
   <v>       0.00554017 </v>
   <v>       0.00554017 </v>
   <v>       0.00554017 </v>
   <v>       0.00554017 </v>
   <v>       0.00554017 </v>
   <v>       0.00554017 </v>
   <v>       0.00554017 </v>
   <v>       0.00554017 </v>
   <v>       0.00554017 </v>
   <v>       0.00554017 </v>
   <v>       0.00554017 </v>
   <v>       0.00554017 </v>
   <v>       0.00554017 </v>
   <v>       0.00554017 </v>
   <v>       0.00554017 </v>
   <v>       0.00554017 </v>
   <v>       0.00554017 </v>
  </varray>
 </kpoints>
 <parameters>
  <separator name="general" >
   <i type="string" name="SYSTEM">Slab Fe 1x1 4Layers</i>
   <i type="logical" name="LCOMPAT"> F  </i>
  </separator>
  <separator name="electronic" >
   <i type="string" name="PREC">accura</i>
   <i name="ENMAX">    450.00000000</i>
   <i name="ENAUG">    356.67000000</i>
   <i name="EDIFF">      0.00000100</i>
   <i type="int" name="IALGO">    38</i>
   <i type="int" name="IWAVPR">    11</i>
   <i type="int" name="NBANDS">    28</i>
   <i name="NELECT">     44.00000000</i>
   <i type="int" name="TURBO">     0</i>
   <i type="int" name="IRESTART">     0</i>
   <i type="int" name="NREBOOT">     0</i>
   <i type="int" name="NMIN">     0</i>
   <i name="EREF">      0.00000000</i>
   <separator name="electronic smearing" >
    <i type="int" name="ISMEAR">     0</i>
    <i name="SIGMA">      0.05000000</i>
    <i name="KSPACING">      0.50000000</i>
    <i type="logical" name="KGAMMA"> T  </i>
   </separator>
   <separator name="electronic projectors" >
    <i type="logical" name="LREAL"> T  </i>
    <v name="ROPT">     -0.00025000</v>
    <i type="int" name="LMAXPAW">  -100</i>
    <i type="int" name="LMAXMIX">     2</i>
    <i type="logical" name="NLSPLINE"> F  </i>
   </separator>
   <separator name="electronic startup" >
    <i type="int" name="ISTART">     0</i>
    <i type="int" name="ICHARG">     2</i>
    <i type="int" name="INIWAV">     1</i>
   </separator>
   <separator name="electronic spin" >
    <i type="int" name="ISPIN">     2</i>
    <i type="logical" name="LNONCOLLINEAR"> F  </i>
    <v name="MAGMOM">      1.00000000      1.00000000      1.00000000      1.00000000</v>
    <i name="NUPDOWN">     -1.00000000</i>
    <i type="logical" name="LSORBIT"> F  </i>
    <v name="SAXIS">      0.00000000      0.00000000      1.00000000</v>
    <i type="logical" name="LSPIRAL"> F  </i>
    <v name="QSPIRAL">      0.00000000      0.00000000      0.00000000</v>
    <i type="logical" name="LZEROZ"> F  </i>
   </separator>
   <separator name="electronic exchange-correlation" >
    <i type="logical" name="LASPH"> F  </i>
    <i type="logical" name="LMETAGGA"> F  </i>
   </separator>
   <separator name="electronic convergence" >
    <i type="int" name="NELM">   100</i>
    <i type="int" name="NELMDL">    -5</i>
    <i type="int" name="NELMIN">     2</i>
    <i name="ENINI">    450.00000000</i>
    <separator name="electronic convergence detail" >
     <i type="logical" name="LDIAG"> T  </i>
     <i type="logical" name="LSUBROT"> F  </i>
     <i name="WEIMIN">      0.00100000</i>
     <i name="EBREAK">      0.00000001</i>
     <i name="DEPER">      0.30000000</i>
     <i type="int" name="NRMM">     4</i>
     <i name="TIME">      0.40000000</i>
    </separator>
   </separator>
   <separator name="electronic mixer" >
    <i name="AMIX">      0.40000000</i>
    <i name="BMIX">      1.00000000</i>
    <i name="AMIN">      0.10000000</i>
    <i name="AMIX_MAG">      1.60000000</i>
    <i name="BMIX_MAG">      1.00000000</i>
    <separator name="electronic mixer details" >
     <i type="int" name="IMIX">     4</i>
     <i type="logical" name="MIXFIRST"> F  </i>
     <i type="int" name="MAXMIX">   -45</i>
     <i name="WC">    100.00000000</i>
     <i type="int" name="INIMIX">     1</i>
     <i type="int" name="MIXPRE">     1</i>
     <i type="int" name="MREMOVE">     5</i>
    </separator>
   </separator>
   <separator name="electronic dipolcorrection" >
    <i type="logical" name="LDIPOL"> F  </i>
    <i type="logical" name="LMONO"> F  </i>
    <i type="int" name="IDIPOL">     3</i>
    <i name="EPSILON">      1.00000000</i>
    <v name="DIPOL">   -100.00000000   -100.00000000   -100.00000000</v>
    <i name="EFIELD">      0.00000000</i>
   </separator>
  </separator>
  <separator name="grids" >
   <i type="int" name="NGX">    20</i>
   <i type="int" name="NGY">    20</i>
   <i type="int" name="NGZ">   150</i>
   <i type="int" name="NGXF">    40</i>
   <i type="int" name="NGYF">    40</i>
   <i type="int" name="NGZF">   300</i>
   <i type="logical" name="ADDGRID"> F  </i>
  </separator>
  <separator name="ionic" >
   <i type="int" name="NSW">  5000</i>
   <i type="int" name="IBRION">     2</i>
   <i type="int" name="ISIF">     2</i>
   <i name="PSTRESS">      0.00000000</i>
   <i name="EDIFFG">     -0.01000000</i>
   <i type="int" name="NFREE">     1</i>
   <i name="POTIM">      0.25000000</i>
   <i name="SMASS">     -3.00000000</i>
   <i name="SCALEE">      1.00000000</i>
  </separator>
  <separator name="ionic md" >
   <i name="TEBEG">      0.00010000</i>
   <i name="TEEND">      0.00010000</i>
   <i type="int" name="NBLOCK">     1</i>
   <i type="int" name="KBLOCK">  5000</i>
   <i type="int" name="NPACO">   256</i>
   <i name="APACO">     16.00000000</i>
  </separator>
  <separator name="symmetry" >
   <i type="int" name="ISYM">     0</i>
   <i name="SYMPREC">      0.00001000</i>
  </separator>
  <separator name="dos" >
   <i type="logical" name="LORBIT"> F  </i>
   <v name="RWIGS">     -1.00000000</v>
   <i type="int" name="NEDOS">   301</i>
   <i name="EMIN">     10.00000000</i>
   <i name="EMAX">    -10.00000000</i>
   <i name="EFERMI">      0.00000000</i>
  </separator>
  <separator name="writing" >
   <i type="int" name="NWRITE">     2</i>
   <i type="logical" name="LWAVE"> F  </i>
   <i type="logical" name="LCHARG"> F  </i>
   <i type="logical" name="LPARD"> F  </i>
   <i type="logical" name="LVTOT"> F  </i>
   <i type="logical" name="LVHAR"> F  </i>
   <i type="logical" name="LELF"> F  </i>
   <i type="logical" name="LOPTICS"> F  </i>
   <v name="STM">      0.00000000      0.00000000      0.00000000      0.00000000      0.00000000      0.00000000      0.00000000</v>
  </separator>
  <separator name="performance" >
   <i type="int" name="NPAR">     1</i>
   <i type="int" name="NSIM">     4</i>
   <i type="int" name="NBLK">    -1</i>
   <i type="logical" name="LPLANE"> T  </i>
   <i type="logical" name="LSCALAPACK"> F  </i>
   <i type="logical" name="LSCAAWARE"> F  </i>
   <i type="logical" name="LSCALU"> F  </i>
   <i type="logical" name="LASYNC"> F  </i>
   <i type="logical" name="LORBITALREAL"> F  </i>
  </separator>
  <separator name="miscellaneous" >
   <i type="int" name="IDIOT">     3</i>
   <i type="logical" name="LMUSIC"> F  </i>
   <v name="POMASS">    196.96600000</v>
   <v name="DARWINR">      0.00000000</v>
   <v name="DARWINV">      1.00000000</v>
   <i type="logical" name="LCORR"> T  </i>
  </separator>
  <i type="logical" name="GGA_COMPAT"> T  </i>
  <i type="logical" name="LBERRY"> F  </i>
  <i type="int" name="ICORELEVEL">     0</i>
  <i type="logical" name="LDAU"> F  </i>
  <i type="int" name="I_CONSTRAINED_M">     0</i>
  <separator name="electronic exchange-correlation" >
   <i type="string" name="GGA">--</i>
   <i type="int" name="VOSKOWN">     0</i>
   <i type="logical" name="LHFCALC"> F  </i>
   <i type="string" name="PRECFOCK"></i>
   <i type="logical" name="LSYMGRAD"> F  </i>
   <i type="logical" name="LHFONE"> F  </i>
   <i type="logical" name="LRHFCALC"> F  </i>
   <i type="logical" name="LTHOMAS"> F  </i>
   <i type="logical" name="LMODELHF"> F  </i>
   <i name="ENCUT4O">     -1.00000000</i>
   <i type="int" name="EXXOEP">     0</i>
   <i type="int" name="FOURORBIT">     0</i>
   <i name="AEXX">      0.00000000</i>
   <i name="HFALPHA">      0.00000000</i>
   <i name="MCALPHA">      0.00000000</i>
   <i name="ALDAX">      1.00000000</i>
   <i name="AGGAX">      1.00000000</i>
   <i name="ALDAC">      1.00000000</i>
   <i name="AGGAC">      1.00000000</i>
   <i type="int" name="NKREDX">     1</i>
   <i type="int" name="NKREDY">     1</i>
   <i type="int" name="NKREDZ">     1</i>
   <i type="logical" name="SHIFTRED"> F  </i>
   <i type="logical" name="ODDONLY"> F  </i>
   <i type="logical" name="EVENONLY"> F  </i>
   <i type="int" name="LMAXFOCK">     0</i>
   <i type="int" name="NMAXFOCKAE">     0</i>
   <i type="logical" name="LFOCKAEDFT"> F  </i>
   <i name="HFSCREEN">      0.00000000</i>
   <i name="HFSCREENC">      0.00000000</i>
   <i type="int" name="NBANDSGWLOW">     0</i>
  </separator>
  <separator name="vdW DFT" >
   <i type="logical" name="LUSE_VDW"> F  </i>
   <i name="Zab_VDW">     -0.84910000</i>
   <i name="PARAM1">      0.12340000</i>
   <i name="PARAM2">      1.00000000</i>
   <i name="PARAM3">      0.00000000</i>
  </separator>
  <separator name="model GW" >
   <i type="int" name="MODEL_GW">     0</i>
   <i name="MODEL_EPS0">     26.63805355</i>
   <i name="MODEL_ALPHA">      1.00000000</i>
  </separator>
  <separator name="linear response parameters" >
   <i type="logical" name="LEPSILON"> F  </i>
   <i type="logical" name="LRPA"> F  </i>
   <i type="logical" name="LNABLA"> F  </i>
   <i type="logical" name="LVEL"> F  </i>
   <i type="int" name="KINTER">     0</i>
   <i name="CSHIFT">      0.10000000</i>
   <i name="OMEGAMAX">     -1.00000000</i>
   <i name="DEG_THRESHOLD">      0.00200000</i>
  </separator>
  <separator name="orbital magnetization" >
   <i type="logical" name="NUCIND"> F  </i>
   <v name="MAGPOS">      0.00000000      0.00000000      0.00000000</v>
   <i type="logical" name="LNICSALL"> T  </i>
   <i type="logical" name="ORBITALMAG"> F  </i>
   <i type="logical" name="LMAGBLOCH"> F  </i>
   <i type="logical" name="LCHIMAG"> F  </i>
   <i type="logical" name="LGAUGE"> T  </i>
   <i type="int" name="MAGATOM">     0</i>
   <v name="MAGDIPOL">      0.00000000      0.00000000      0.00000000</v>
   <v name="AVECCONST">      0.00000000      0.00000000      0.00000000</v>
  </separator>
  <separator name="response functions" >
   <i type="logical" name="LADDER"> F  </i>
   <i type="logical" name="LFXC"> F  </i>
   <i type="logical" name="LHARTREE"> T  </i>
   <i type="int" name="IBSE">     0</i>
   <v type="int" name="KPOINT">    -1     0     0     0</v>
   <i type="logical" name="LTCTE"> F  </i>
   <i type="logical" name="LTETE"> F  </i>
   <i type="logical" name="LTRIPLET"> F  </i>
   <i type="logical" name="LFXCEPS"> F  </i>
   <i type="logical" name="LFXHEG"> F  </i>
   <i type="int" name="NATURALO">     0</i>
   <i type="logical" name="L2ORDER"> F  </i>
   <i type="logical" name="LUSEW"> F  </i>
   <i name="ENCUTGW">     -2.00000000</i>
   <i name="ENCUTGWSOFT">     -2.00000000</i>
   <i name="ENCUTLF">     -1.00000000</i>
   <i type="int" name="LMAXMP2">    -1</i>
   <i name="SCISSOR">      0.00000000</i>
   <i type="int" name="NOMEGA">     0</i>
   <i type="int" name="NOMEGAR">     0</i>
   <i type="int" name="NBANDSGW">    -1</i>
   <i type="int" name="NBANDSO">    -1</i>
   <i type="int" name="NBANDSV">    -1</i>
   <i type="int" name="NELM">   100</i>
   <i type="int" name="NELMHF">     1</i>
   <i type="int" name="DIM">     3</i>
   <i type="int" name="ANTIRES">     0</i>
   <i name="OMEGAMAX">    -30.00000000</i>
   <i name="OMEGAMIN">    -30.00000000</i>
   <i name="OMEGATL">   -200.00000000</i>
   <i type="int" name="OMEGAGRID">     0</i>
   <i name="CSHIFT">     -0.10000000</i>
   <i type="logical" name="SELFENERGY"> F  </i>
   <i type="logical" name="LSPECTRAL"> F  </i>
   <i type="logical" name="LSPECTRALGW"> F  </i>
   <i type="logical" name="LSINGLES"> F  </i>
   <i type="logical" name="LFERMIGW"> F  </i>
   <i type="logical" name="ODDONLYGW"> F  </i>
   <i type="logical" name="EVENONLYGW"> F  </i>
   <i type="int" name="NKREDLFX">     1</i>
   <i type="int" name="NKREDLFY">     1</i>
   <i type="int" name="NKREDLFZ">     1</i>
   <i type="int" name="MAXMEM">  1800</i>
   <i type="int" name="TELESCOPE">     0</i>
   <i type="int" name="TAUPAR">     1</i>
   <i type="int" name="OMEGAPAR">    -1</i>
   <i name="LAMBDA">      1.00000000</i>
  </separator>
  <separator name="External order field" >
   <i name="OFIELD_KAPPA">      0.00000000</i>
   <v name="OFIELD_K">      0.00000000      0.00000000      0.00000000</v>
   <i name="OFIELD_Q6_NEAR">      0.00000000</i>
   <i name="OFIELD_Q6_FAR">      0.00000000</i>
   <i name="OFIELD_A">      0.00000000</i>
  </separator>
 </parameters>
 <atominfo>
  <atoms>       4 </atoms>
  <types>       1 </types>
  <array name="atoms" >
   <dimension dim="1">ion</dimension>
   <field type="string">element</field>
   <field type="int">atomtype</field>
   <set>
    <rc><c>Au</c><c>   1</c></rc>
    <rc><c>Au</c><c>   1</c></rc>
    <rc><c>Au</c><c>   1</c></rc>
    <rc><c>Au</c><c>   1</c></rc>
   </set>
  </array>
  <array name="atomtypes" >
   <dimension dim="1">type</dimension>
   <field type="int">atomspertype</field>
   <field type="string">element</field>
   <field>mass</field>
   <field>valence</field>
   <field type="string">pseudopotential</field>
   <set>
    <rc><c>   4</c><c>Au</c><c>    196.96600000</c><c>     11.00000000</c><c>  PAW_PBE Au 04Oct2007                  </c></rc>
   </set>
  </array>
 </atominfo>
 <structure name="initialpos" >
  <crystal>
   <varray name="basis" >
    <v>       2.89786501       0.00000000       0.00000000 </v>
    <v>       0.00000000       2.89786501       0.00000000 </v>
    <v>       0.00000000       0.00000000      21.14730000 </v>
   </varray>
   <i name="volume">    177.58702368 </i>
   <varray name="rec_basis" >
    <v>       0.34508164       0.00000000       0.00000000 </v>
    <v>       0.00000000       0.34508164       0.00000000 </v>
    <v>       0.00000000       0.00000000       0.04728736 </v>
   </varray>
  </crystal>
  <varray name="positions" >
   <v>       0.44893251       0.44893251       0.50000000 </v>
   <v>       0.00000000       0.00000000       0.54910000 </v>
   <v>       0.44893251       0.44893251       0.59820000 </v>
   <v>       0.00000000       0.00000000       0.64730000 </v>
  </varray>
  <varray name="selective"  type="logical" >
   <v type="logical" >  F  F  F </v>
   <v type="logical" >  T  T  T </v>
   <v type="logical" >  T  T  T </v>
   <v type="logical" >  T  T  T </v>
  </varray>
  <nose>
   <v>      -3.00000000       0.00000000       0.00010000       0.00010000 </v>
  </nose>
 </structure>
 <calculation>
  <scstep>
   <time name="dav">   11.18   11.40</time>
   <time name="total">   11.29   11.54</time>
   <energy>
    <i name="alphaZ">    104.94424882 </i>
    <i name="ewald">  19390.80682455 </i>
    <i name="hartreedc"> -23137.30306878 </i>
    <i name="XCdc">     71.92367869 </i>
    <i name="pawpsdc">   3496.08590032 </i>
    <i name="pawaedc">  -3403.74950362 </i>
    <i name="eentropy">     -0.00225449 </i>
    <i name="bandstr">    125.40204778 </i>
    <i name="atom">   3704.32389242 </i>
    <i name="e_fr_energy">    352.43176569 </i>
    <i name="e_wo_entrp">    352.43402018 </i>
    <i name="e_0_energy">    352.43289293 </i>
   </energy>
  </scstep>
  <scstep>
   <time name="dav">   12.71   12.73</time>
   <time name="total">   12.73   12.75</time>
   <energy>
    <i name="e_fr_energy">     30.00476450 </i>
    <i name="e_wo_entrp">     30.00599177 </i>
    <i name="e_0_energy">     30.00537813 </i>
   </energy>
  </scstep>
  <scstep>
   <time name="dav">   12.19   12.20</time>
   <time name="total">   12.21   12.23</time>
   <energy>
    <i name="e_fr_energy">     17.27118572 </i>
    <i name="e_wo_entrp">     17.27363802 </i>
    <i name="e_0_energy">     17.27241187 </i>
   </energy>
  </scstep>
  <scstep>
   <time name="dav">   12.58   12.59</time>
   <time name="total">   12.60   12.61</time>
   <energy>
    <i name="e_fr_energy">     17.06236251 </i>
    <i name="e_wo_entrp">     17.06472831 </i>
    <i name="e_0_energy">     17.06354541 </i>
   </energy>
  </scstep>
  <scstep>
   <time name="dav">   12.14   12.15</time>
   <time name="total">   13.12   13.14</time>
   <energy>
    <i name="e_fr_energy">     17.05829687 </i>
    <i name="e_wo_entrp">     17.06066146 </i>
    <i name="e_0_energy">     17.05947916 </i>
   </energy>
  </scstep>
  <scstep>
   <time name="dav">   11.40   11.41</time>
   <time name="total">   12.45   12.47</time>
   <energy>
    <i name="e_fr_energy">     21.34316327 </i>
    <i name="e_wo_entrp">     21.34432019 </i>
    <i name="e_0_energy">     21.34374173 </i>
   </energy>
  </scstep>
  <scstep>
   <time name="dav">   11.10   11.11</time>
   <time name="total">   12.12   12.13</time>
   <energy>
    <i name="e_fr_energy">     25.40627448 </i>
    <i name="e_wo_entrp">     25.40819328 </i>
    <i name="e_0_energy">     25.40723388 </i>
   </energy>
  </scstep>
  <scstep>
   <time name="dav">   11.56   11.57</time>
   <time name="total">   12.55   12.57</time>
   <energy>
    <i name="e_fr_energy">     24.12160912 </i>
    <i name="e_wo_entrp">     24.12293665 </i>
    <i name="e_0_energy">     24.12227288 </i>
   </energy>
  </scstep>
  <scstep>
   <time name="dav">   11.49   11.50</time>
   <time name="total">   12.47   12.48</time>
   <energy>
    <i name="e_fr_energy">     23.25378241 </i>
    <i name="e_wo_entrp">     23.25533315 </i>
    <i name="e_0_energy">     23.25455778 </i>
   </energy>
  </scstep>
  <scstep>
   <time name="dav">   11.36   11.37</time>
   <time name="total">   12.34   12.36</time>
   <energy>
    <i name="e_fr_energy">     22.50127645 </i>
    <i name="e_wo_entrp">     22.50265414 </i>
    <i name="e_0_energy">     22.50196530 </i>
   </energy>
  </scstep>
  <scstep>
   <time name="dav">   11.14   11.15</time>
   <time name="total">   12.13   12.14</time>
   <energy>
    <i name="e_fr_energy">     20.54287052 </i>
    <i name="e_wo_entrp">     20.54366272 </i>
    <i name="e_0_energy">     20.54326662 </i>
   </energy>
  </scstep>
  <scstep>
   <time name="dav">   11.41   11.42</time>
   <time name="total">   12.42   12.44</time>
   <energy>
    <i name="e_fr_energy">     19.14998841 </i>
    <i name="e_wo_entrp">     19.15064314 </i>
    <i name="e_0_energy">     19.15031578 </i>
   </energy>
  </scstep>
  <scstep>
   <time name="dav">   11.45   11.46</time>
   <time name="total">   12.48   12.52</time>
   <energy>
    <i name="e_fr_energy">     18.78731785 </i>
    <i name="e_wo_entrp">     18.78788369 </i>
    <i name="e_0_energy">     18.78760077 </i>
   </energy>
  </scstep>
  <scstep>
   <time name="dav">   11.05   11.06</time>
   <time name="total">   12.02   12.03</time>
   <energy>
    <i name="e_fr_energy">     18.42893989 </i>
    <i name="e_wo_entrp">     18.43015261 </i>
    <i name="e_0_energy">     18.42954625 </i>
   </energy>
  </scstep>
  <scstep>
   <time name="dav">   11.90   11.91</time>
   <time name="total">   12.95   12.97</time>
   <energy>
    <i name="e_fr_energy">     18.33063637 </i>
    <i name="e_wo_entrp">     18.33122946 </i>
    <i name="e_0_energy">     18.33093292 </i>
   </energy>
  </scstep>
  <scstep>
   <time name="dav">   11.45   11.46</time>
   <time name="total">   12.47   12.48</time>
   <energy>
    <i name="e_fr_energy">     18.28142784 </i>
    <i name="e_wo_entrp">     18.28225081 </i>
    <i name="e_0_energy">     18.28183932 </i>
   </energy>
  </scstep>
  <scstep>
   <time name="dav">   11.38   11.39</time>
   <time name="total">   12.43   12.45</time>
   <energy>
    <i name="e_fr_energy">     18.26908963 </i>
    <i name="e_wo_entrp">     18.27006913 </i>
    <i name="e_0_energy">     18.26957938 </i>
   </energy>
  </scstep>
  <scstep>
   <time name="dav">   11.28   11.30</time>
   <time name="total">   12.30   12.31</time>
   <energy>
    <i name="e_fr_energy">     18.26680458 </i>
    <i name="e_wo_entrp">     18.26792202 </i>
    <i name="e_0_energy">     18.26736330 </i>
   </energy>
  </scstep>
  <scstep>
   <time name="dav">   11.26   11.27</time>
   <time name="total">   12.22   12.24</time>
   <energy>
    <i name="e_fr_energy">     18.24085125 </i>
    <i name="e_wo_entrp">     18.24202269 </i>
    <i name="e_0_energy">     18.24143697 </i>
   </energy>
  </scstep>
  <scstep>
   <time name="dav">   11.57   11.58</time>
   <time name="total">   12.60   12.61</time>
   <energy>
    <i name="e_fr_energy">     18.22546521 </i>
    <i name="e_wo_entrp">     18.22663203 </i>
    <i name="e_0_energy">     18.22604862 </i>
   </energy>
  </scstep>
  <scstep>
   <time name="dav">   11.54   11.56</time>
   <time name="total">   12.57   12.59</time>
   <energy>
    <i name="e_fr_energy">     18.21325618 </i>
    <i name="e_wo_entrp">     18.21443988 </i>
    <i name="e_0_energy">     18.21384803 </i>
   </energy>
  </scstep>
  <scstep>
   <time name="dav">   11.34   11.36</time>
   <time name="total">   12.38   12.40</time>
   <energy>
    <i name="e_fr_energy">     18.20792275 </i>
    <i name="e_wo_entrp">     18.20911581 </i>
    <i name="e_0_energy">     18.20851928 </i>
   </energy>
  </scstep>
  <scstep>
   <time name="dav">   10.20   10.21</time>
   <time name="total">   11.20   11.21</time>
   <energy>
    <i name="e_fr_energy">     18.20708708 </i>
    <i name="e_wo_entrp">     18.20827999 </i>
    <i name="e_0_energy">     18.20768354 </i>
   </energy>
  </scstep>
  <scstep>
   <time name="dav">   10.13   10.14</time>
   <time name="total">   11.14   11.16</time>
   <energy>
    <i name="e_fr_energy">     18.20640708 </i>
    <i name="e_wo_entrp">     18.20759713 </i>
    <i name="e_0_energy">     18.20700211 </i>
   </energy>
  </scstep>
  <scstep>
   <time name="dav">    9.40    9.41</time>
   <time name="total">   10.41   10.43</time>
   <energy>
    <i name="e_fr_energy">     18.20625915 </i>
    <i name="e_wo_entrp">     18.20744819 </i>
    <i name="e_0_energy">     18.20685367 </i>
   </energy>
  </scstep>
  <scstep>
   <time name="dav">    9.13    9.14</time>
   <time name="total">   10.10   10.12</time>
   <energy>
    <i name="e_fr_energy">     18.20623216 </i>
    <i name="e_wo_entrp">     18.20742247 </i>
    <i name="e_0_energy">     18.20682732 </i>
   </energy>
  </scstep>
  <scstep>
   <time name="dav">    9.00    9.01</time>
   <time name="total">   10.09   10.11</time>
   <energy>
    <i name="e_fr_energy">     18.20622647 </i>
    <i name="e_wo_entrp">     18.20741694 </i>
    <i name="e_0_energy">     18.20682170 </i>
   </energy>
  </scstep>
  <scstep>
   <time name="dav">    8.73    8.74</time>
   <time name="total">    9.82    9.83</time>
   <energy>
    <i name="e_fr_energy">     18.20622492 </i>
    <i name="e_wo_entrp">     18.20741548 </i>
    <i name="e_0_energy">     18.20682020 </i>
   </energy>
  </scstep>
  <scstep>
   <time name="dav">    8.94    8.95</time>
   <time name="total">    9.96    9.98</time>
   <energy>
    <i name="e_fr_energy">     18.20622196 </i>
    <i name="e_wo_entrp">     18.20741244 </i>
    <i name="e_0_energy">     18.20681720 </i>
   </energy>
  </scstep>
  <scstep>
   <time name="dav">    8.99    9.00</time>
   <time name="total">    9.96    9.97</time>
   <energy>
    <i name="e_fr_energy">     18.20622036 </i>
    <i name="e_wo_entrp">     18.20741074 </i>
    <i name="e_0_energy">     18.20681555 </i>
   </energy>
  </scstep>
  <scstep>
   <time name="dav">    8.64    8.65</time>
   <time name="total">    8.72    8.73</time>
   <energy>
    <i name="alphaZ">    104.94424882 </i>
    <i name="ewald">  19390.80682455 </i>
    <i name="hartreedc"> -23043.66237061 </i>
    <i name="XCdc">     69.95149455 </i>
    <i name="pawpsdc">   8343.36732090 </i>
    <i name="pawaedc">  -8282.01153084 </i>
    <i name="eentropy">     -0.00119046 </i>
    <i name="bandstr">   -269.51246911 </i>
    <i name="atom">   3704.32389242 </i>
    <i name="e_fr_energy">     18.20622022 </i>
    <i name="e_wo_entrp">     18.20741068 </i>
    <i name="e_0_energy">     18.20681545 </i>
   </energy>
  </scstep>
  <dipole>
   <v name="dipole">      0.00000000       0.00000000       0.00034382 </v>
   <i name="Tr[quadrupol]">    -72.40874719 </i>
   <i name="Echarged">      0.00000000 </i>
   <i name="Edipol_quadrupol">      0.00000000 </i>
   <i name="Eion">      0.00000000 </i>
  </dipole>
  <structure>
   <crystal>
    <varray name="basis" >
     <v>       2.89786501       0.00000000       0.00000000 </v>
     <v>       0.00000000       2.89786501       0.00000000 </v>
     <v>       0.00000000       0.00000000      21.14730000 </v>
    </varray>
    <i name="volume">    177.58702368 </i>
    <varray name="rec_basis" >
     <v>       0.34508164       0.00000000       0.00000000 </v>
     <v>       0.00000000       0.34508164       0.00000000 </v>
     <v>       0.00000000       0.00000000       0.04728736 </v>
    </varray>
   </crystal>
   <varray name="positions" >
    <v>       0.44893251       0.44893251       0.50000000 </v>
    <v>       0.00000000       0.00000000       0.54910000 </v>
    <v>       0.44893251       0.44893251       0.59820000 </v>
    <v>       0.00000000       0.00000000       0.64730000 </v>
   </varray>
  </structure>
  <varray name="forces" >
   <v>       6.79839404       6.79839405     -34.73129173 </v>
   <v>     -13.51845707     -13.51845707     -20.34221083 </v>
   <v>      13.51854139      13.51854139      20.34181858 </v>
   <v>      -6.79847837      -6.79847837      34.73168398 </v>
  </varray>
  <varray name="stress" >
   <v>     911.17256601      84.65573091     -64.43916890 </v>
   <v>      84.65572968     911.17256621     -64.43916828 </v>
   <v>     -64.43916847     -64.43916746    1166.45870707 </v>
  </varray>
  <energy>
   <i name="e_fr_energy">     15.47441383 </i>
   <i name="e_wo_entrp">     15.47500906 </i>
   <i name="e_0_energy">     -0.00119046 </i>
  </energy>
  <time name="totalsc">  381.41  382.20</time>
 </calculation>
 <calculation>
  <scstep>
   <time name="dav">   14.88   14.90</time>
   <time name="total">   15.89   15.95</time>
   <energy>
    <i name="alphaZ">    104.94424882 </i>
    <i name="ewald">  15956.35052161 </i>
    <i name="hartreedc"> -19673.96144678 </i>
    <i name="XCdc">     66.96539261 </i>
    <i name="pawpsdc">   8343.36298868 </i>
    <i name="pawaedc">  -8282.00715741 </i>
    <i name="eentropy">     -0.00271169 </i>
    <i name="bandstr">   -155.23185917 </i>
    <i name="atom">   3704.32389242 </i>
    <i name="e_fr_energy">     64.74386910 </i>
    <i name="e_wo_entrp">     64.74658079 </i>
    <i name="e_0_energy">     64.74522495 </i>
   </energy>
  </scstep>
  <scstep>
   <time name="dav">   11.19   11.20</time>
   <time name="total">   12.19   12.20</time>
   <energy>
    <i name="e_fr_energy">      9.24581257 </i>
    <i name="e_wo_entrp">      9.24696305 </i>
    <i name="e_0_energy">      9.24638781 </i>
   </energy>
  </scstep>
  <scstep>
   <time name="dav">   11.90   11.91</time>
   <time name="total">   12.88   12.89</time>
   <energy>
    <i name="e_fr_energy">      9.00893668 </i>
    <i name="e_wo_entrp">      9.01054643 </i>
    <i name="e_0_energy">      9.00974155 </i>
   </energy>
  </scstep>
  <scstep>
   <time name="dav">   11.72   11.73</time>
   <time name="total">   12.68   12.70</time>
   <energy>
    <i name="e_fr_energy">      8.81384883 </i>
    <i name="e_wo_entrp">      8.81495039 </i>
    <i name="e_0_energy">      8.81439961 </i>
   </energy>
  </scstep>
  <scstep>
   <time name="dav">   11.72   11.73</time>
   <time name="total">   12.71   12.72</time>
   <energy>
    <i name="e_fr_energy">      9.17861755 </i>
    <i name="e_wo_entrp">      9.18043237 </i>
    <i name="e_0_energy">      9.17952496 </i>
   </energy>
  </scstep>
  <scstep>
   <time name="dav">   11.57   11.59</time>
   <time name="total">   12.67   12.68</time>
   <energy>
    <i name="e_fr_energy">      9.19383296 </i>
    <i name="e_wo_entrp">      9.19594860 </i>
    <i name="e_0_energy">      9.19489078 </i>
   </energy>
  </scstep>
  <scstep>
   <time name="dav">   12.31   12.32</time>
   <time name="total">   13.34   13.36</time>
   <energy>
    <i name="e_fr_energy">      9.19697465 </i>
    <i name="e_wo_entrp">      9.19906877 </i>
    <i name="e_0_energy">      9.19802171 </i>
   </energy>
  </scstep>
  <scstep>
   <time name="dav">   11.83   11.84</time>
   <time name="total">   12.82   12.84</time>
   <energy>
    <i name="e_fr_energy">      9.19856072 </i>
    <i name="e_wo_entrp">      9.20074209 </i>
    <i name="e_0_energy">      9.19965141 </i>
   </energy>
  </scstep>
  <scstep>
   <time name="dav">   11.88   11.89</time>
   <time name="total">   12.86   12.87</time>
   <energy>
    <i name="e_fr_energy">      9.19914614 </i>
    <i name="e_wo_entrp">      9.20134604 </i>
    <i name="e_0_energy">      9.20024609 </i>
   </energy>
  </scstep>
  <scstep>
   <time name="dav">   11.86   11.87</time>
   <time name="total">   12.92   12.93</time>
   <energy>
    <i name="e_fr_energy">      9.19922617 </i>
    <i name="e_wo_entrp">      9.20143845 </i>
    <i name="e_0_energy">      9.20033231 </i>
   </energy>
  </scstep>
  <scstep>
   <time name="dav">   11.63   11.64</time>
   <time name="total">   12.64   12.67</time>
   <energy>
    <i name="e_fr_energy">      9.19928996 </i>
    <i name="e_wo_entrp">      9.20151849 </i>
    <i name="e_0_energy">      9.20040422 </i>
   </energy>
  </scstep>
  <scstep>
   <time name="dav">   11.52   11.53</time>
   <time name="total">   12.52   12.53</time>
   <energy>
    <i name="e_fr_energy">      9.19924268 </i>
    <i name="e_wo_entrp">      9.20147923 </i>
    <i name="e_0_energy">      9.20036096 </i>
   </energy>
  </scstep>
  <scstep>
   <time name="dav">   10.98   11.00</time>
   <time name="total">   11.95   11.98</time>
   <energy>
    <i name="e_fr_energy">      9.19916462 </i>
    <i name="e_wo_entrp">      9.20140796 </i>
    <i name="e_0_energy">      9.20028629 </i>
   </energy>
  </scstep>
  <scstep>
   <time name="dav">   10.24   10.25</time>
   <time name="total">   11.27   11.28</time>
   <energy>
    <i name="e_fr_energy">      9.19909880 </i>
    <i name="e_wo_entrp">      9.20134795 </i>
    <i name="e_0_energy">      9.20022337 </i>
   </energy>
  </scstep>
  <scstep>
   <time name="dav">   10.04   10.05</time>
   <time name="total">   11.03   11.05</time>
   <energy>
    <i name="e_fr_energy">      9.19905809 </i>
    <i name="e_wo_entrp">      9.20130959 </i>
    <i name="e_0_energy">      9.20018384 </i>
   </energy>
  </scstep>
  <scstep>
   <time name="dav">    9.08    9.09</time>
   <time name="total">   10.06   10.07</time>
   <energy>
    <i name="e_fr_energy">      9.19904549 </i>
    <i name="e_wo_entrp">      9.20129696 </i>
    <i name="e_0_energy">      9.20017122 </i>
   </energy>
  </scstep>
  <scstep>
   <time name="dav">    8.97    8.98</time>
   <time name="total">    9.98    9.99</time>
   <energy>
    <i name="e_fr_energy">      9.19903661 </i>
    <i name="e_wo_entrp">      9.20128807 </i>
    <i name="e_0_energy">      9.20016234 </i>
   </energy>
  </scstep>
  <scstep>
   <time name="dav">    9.34    9.34</time>
   <time name="total">   10.40   10.41</time>
   <energy>
    <i name="e_fr_energy">      9.19903075 </i>
    <i name="e_wo_entrp">      9.20128214 </i>
    <i name="e_0_energy">      9.20015645 </i>
   </energy>
  </scstep>
  <scstep>
   <time name="dav">    9.19    9.19</time>
   <time name="total">   10.18   10.19</time>
   <energy>
    <i name="e_fr_energy">      9.19902743 </i>
    <i name="e_wo_entrp">      9.20127878 </i>
    <i name="e_0_energy">      9.20015311 </i>
   </energy>
  </scstep>
  <scstep>
   <time name="dav">    9.04    9.06</time>
   <time name="total">   10.07   10.09</time>
   <energy>
    <i name="e_fr_energy">      9.19902281 </i>
    <i name="e_wo_entrp">      9.20127417 </i>
    <i name="e_0_energy">      9.20014849 </i>
   </energy>
  </scstep>
  <scstep>
   <time name="dav">    8.94    8.95</time>
   <time name="total">    9.92    9.93</time>
   <energy>
    <i name="e_fr_energy">      9.19901949 </i>
    <i name="e_wo_entrp">      9.20127088 </i>
    <i name="e_0_energy">      9.20014518 </i>
   </energy>
  </scstep>
  <scstep>
   <time name="dav">    8.81    8.82</time>
   <time name="total">    9.78    9.79</time>
   <energy>
    <i name="e_fr_energy">      9.19901708 </i>
    <i name="e_wo_entrp">      9.20126853 </i>
    <i name="e_0_energy">      9.20014281 </i>
   </energy>
  </scstep>
  <scstep>
   <time name="dav">    8.63    8.64</time>
   <time name="total">    8.75    8.76</time>
   <energy>
    <i name="alphaZ">    104.94424882 </i>
    <i name="ewald">  15956.35052161 </i>
    <i name="hartreedc"> -19665.65590256 </i>
    <i name="XCdc">     66.24236558 </i>
    <i name="pawpsdc">   6499.13720326 </i>
    <i name="pawaedc">  -6431.97487246 </i>
    <i name="eentropy">     -0.00225148 </i>
    <i name="bandstr">   -224.16618899 </i>
    <i name="atom">   3704.32389242 </i>
    <i name="e_fr_energy">      9.19901621 </i>
    <i name="e_wo_entrp">      9.20126769 </i>
    <i name="e_0_energy">      9.20014195 </i>
   </energy>
  </scstep>
  <dipole>
   <v name="dipole">      0.00000000       0.00000000       2.04638330 </v>
   <i name="Tr[quadrupol]">   -191.00394865 </i>
   <i name="Echarged">      0.00000000 </i>
   <i name="Edipol_quadrupol">      0.00000000 </i>
   <i name="Eion">      0.00000000 </i>
  </dipole>
  <structure>
   <crystal>
    <varray name="basis" >
     <v>       2.89786501       0.00000000       0.00000000 </v>
     <v>       0.00000000       2.89786501       0.00000000 </v>
     <v>       0.00000000       0.00000000      21.14730000 </v>
    </varray>
    <i name="volume">    177.58702368 </i>
    <varray name="rec_basis" >
     <v>       0.34508164       0.00000000       0.00000000 </v>
     <v>       0.00000000       0.34508164       0.00000000 </v>
     <v>       0.00000000       0.00000000       0.04728736 </v>
    </varray>
   </crystal>
   <varray name="positions" >
    <v>       0.44893251       0.44893251       0.50000000 </v>
    <v>      -0.11252530      -0.11252530       0.52589698 </v>
    <v>       0.56145851       0.56145851       0.62140257 </v>
    <v>      -0.05658936      -0.05658936       0.68691614 </v>
   </varray>
  </structure>
  <varray name="forces" >
   <v>     -18.95566178     -18.95566180     -19.99319637 </v>
   <v>      20.24538626      20.24538627      13.18648478 </v>
   <v>      -8.89940291      -8.89940290      -7.06927211 </v>
   <v>       7.60967842       7.60967842      13.87598369 </v>
  </varray>
  <varray name="stress" >
   <v>     799.07598607     146.67984041     165.25779764 </v>
   <v>     146.67984058     799.07598571     165.25779794 </v>
   <v>     165.25779804     165.25779801     396.01018264 </v>
  </varray>
  <energy>
   <i name="e_fr_energy">      8.89694955 </i>
   <i name="e_wo_entrp">      8.89807530 </i>
   <i name="e_0_energy">     -0.00225148 </i>
  </energy>
  <time name="totalsc">  286.40  286.81</time>
 </calculation>
 <calculation>
  <scstep>
   <time name="dav">   10.91   10.92</time>
   <time name="total">   11.94   11.97</time>
   <energy>
    <i name="alphaZ">    104.94424882 </i>
    <i name="ewald">  17725.23845047 </i>
    <i name="hartreedc"> -21440.67696973 </i>
    <i name="XCdc">     67.56192431 </i>
    <i name="pawpsdc">   6499.13882240 </i>
    <i name="pawaedc">  -6431.97648900 </i>
    <i name="eentropy">     -0.00149025 </i>
    <i name="bandstr">   -215.62987946 </i>
    <i name="atom">   3704.32389242 </i>
    <i name="e_fr_energy">     12.92250998 </i>
    <i name="e_wo_entrp">     12.92400023 </i>
    <i name="e_0_energy">     12.92325511 </i>
   </energy>
  </scstep>
  <scstep>
   <time name="dav">   11.54   11.55</time>
   <time name="total">   12.56   12.58</time>
   <energy>
    <i name="e_fr_energy">      4.50454636 </i>
    <i name="e_wo_entrp">      4.50628337 </i>
    <i name="e_0_energy">      4.50541487 </i>
   </energy>
  </scstep>
  <scstep>
   <time name="dav">   12.04   12.05</time>
   <time name="total">   13.02   13.04</time>
   <energy>
    <i name="e_fr_energy">      4.65724055 </i>
    <i name="e_wo_entrp">      4.65926546 </i>
    <i name="e_0_energy">      4.65825301 </i>
   </energy>
  </scstep>
  <scstep>
   <time name="dav">   11.78   11.79</time>
   <time name="total">   12.79   12.80</time>
   <energy>
    <i name="e_fr_energy">      4.69877407 </i>
    <i name="e_wo_entrp">      4.70057435 </i>
    <i name="e_0_energy">      4.69967421 </i>
   </energy>
  </scstep>
  <scstep>
   <time name="dav">   11.72   11.73</time>
   <time name="total">   12.68   12.70</time>
   <energy>
    <i name="e_fr_energy">      4.73741834 </i>
    <i name="e_wo_entrp">      4.73933380 </i>
    <i name="e_0_energy">      4.73837607 </i>
   </energy>
  </scstep>
  <scstep>
   <time name="dav">   11.72   11.74</time>
   <time name="total">   12.72   12.74</time>
   <energy>
    <i name="e_fr_energy">      4.74085531 </i>
    <i name="e_wo_entrp">      4.74307318 </i>
    <i name="e_0_energy">      4.74196425 </i>
   </energy>
  </scstep>
  <scstep>
   <time name="dav">   12.12   12.14</time>
   <time name="total">   13.08   13.09</time>
   <energy>
    <i name="e_fr_energy">      4.74095264 </i>
    <i name="e_wo_entrp">      4.74316914 </i>
    <i name="e_0_energy">      4.74206089 </i>
   </energy>
  </scstep>
  <scstep>
   <time name="dav">   11.67   11.68</time>
   <time name="total">   12.63   12.64</time>
   <energy>
    <i name="e_fr_energy">      4.74111163 </i>
    <i name="e_wo_entrp">      4.74327865 </i>
    <i name="e_0_energy">      4.74219514 </i>
   </energy>
  </scstep>
  <scstep>
   <time name="dav">   11.63   11.65</time>
   <time name="total">   12.63   12.65</time>
   <energy>
    <i name="e_fr_energy">      4.74109648 </i>
    <i name="e_wo_entrp">      4.74328117 </i>
    <i name="e_0_energy">      4.74218882 </i>
   </energy>
  </scstep>
  <scstep>
   <time name="dav">   11.79   11.80</time>
   <time name="total">   12.75   12.77</time>
   <energy>
    <i name="e_fr_energy">      4.74108571 </i>
    <i name="e_wo_entrp">      4.74326194 </i>
    <i name="e_0_energy">      4.74217382 </i>
   </energy>
  </scstep>
  <scstep>
   <time name="dav">   11.22   11.23</time>
   <time name="total">   12.22   12.24</time>
   <energy>
    <i name="e_fr_energy">      4.74106515 </i>
    <i name="e_wo_entrp">      4.74324304 </i>
    <i name="e_0_energy">      4.74215410 </i>
   </energy>
  </scstep>
  <scstep>
   <time name="dav">    8.98    8.99</time>
   <time name="total">    9.95    9.96</time>
   <energy>
    <i name="e_fr_energy">      4.74106057 </i>
    <i name="e_wo_entrp">      4.74323932 </i>
    <i name="e_0_energy">      4.74214994 </i>
   </energy>
  </scstep>
  <scstep>
   <time name="dav">    8.84    8.85</time>
   <time name="total">    9.81    9.82</time>
   <energy>
    <i name="e_fr_energy">      4.74104713 </i>
    <i name="e_wo_entrp">      4.74322561 </i>
    <i name="e_0_energy">      4.74213637 </i>
   </energy>
  </scstep>
  <scstep>
   <time name="dav">    8.84    8.85</time>
   <time name="total">    9.82    9.84</time>
   <energy>
    <i name="e_fr_energy">      4.74104286 </i>
    <i name="e_wo_entrp">      4.74322127 </i>
    <i name="e_0_energy">      4.74213206 </i>
   </energy>
  </scstep>
  <scstep>
   <time name="dav">    8.82    8.83</time>
   <time name="total">    9.84    9.85</time>
   <energy>
    <i name="e_fr_energy">      4.74103824 </i>
    <i name="e_wo_entrp">      4.74321662 </i>
    <i name="e_0_energy">      4.74212743 </i>
   </energy>
  </scstep>
  <scstep>
   <time name="dav">    8.91    8.91</time>
   <time name="total">    9.88    9.89</time>
   <energy>
    <i name="e_fr_energy">      4.74103687 </i>
    <i name="e_wo_entrp">      4.74321512 </i>
    <i name="e_0_energy">      4.74212600 </i>
   </energy>
  </scstep>
  <scstep>
   <time name="dav">    8.94    8.95</time>
   <time name="total">   10.02   10.04</time>
   <energy>
    <i name="e_fr_energy">      4.74103524 </i>
    <i name="e_wo_entrp">      4.74321340 </i>
    <i name="e_0_energy">      4.74212432 </i>
   </energy>
  </scstep>
  <scstep>
   <time name="dav">    8.64    8.65</time>
   <time name="total">    9.61    9.62</time>
   <energy>
    <i name="e_fr_energy">      4.74103395 </i>
    <i name="e_wo_entrp">      4.74321214 </i>
    <i name="e_0_energy">      4.74212305 </i>
   </energy>
  </scstep>
  <scstep>
   <time name="dav">    8.49    8.50</time>
   <time name="total">    9.45    9.46</time>
   <energy>
    <i name="e_fr_energy">      4.74103293 </i>
    <i name="e_wo_entrp">      4.74321114 </i>
    <i name="e_0_energy">      4.74212204 </i>
   </energy>
  </scstep>
  <scstep>
   <time name="dav">    8.31    8.32</time>
   <time name="total">    8.39    8.40</time>
   <energy>
    <i name="alphaZ">    104.94424882 </i>
    <i name="ewald">  17725.23845047 </i>
    <i name="hartreedc"> -21427.51970466 </i>
    <i name="XCdc">     67.32771944 </i>
    <i name="pawpsdc">   6673.18160006 </i>
    <i name="pawaedc">  -6605.91982574 </i>
    <i name="eentropy">     -0.00217821 </i>
    <i name="bandstr">   -236.83317012 </i>
    <i name="atom">   3704.32389242 </i>
    <i name="e_fr_energy">      4.74103248 </i>
    <i name="e_wo_entrp">      4.74321069 </i>
    <i name="e_0_energy">      4.74212158 </i>
   </energy>
  </scstep>
  <dipole>
   <v name="dipole">      0.00000000       0.00000000       0.02949006 </v>
   <i name="Tr[quadrupol]">    -81.85667544 </i>
   <i name="Echarged">      0.00000000 </i>
   <i name="Edipol_quadrupol">      0.00000000 </i>
   <i name="Eion">      0.00000000 </i>
  </dipole>
  <structure>
   <crystal>
    <varray name="basis" >
     <v>       2.89786501       0.00000000       0.00000000 </v>
     <v>       0.00000000       2.89786501       0.00000000 </v>
     <v>       0.00000000       0.00000000      21.14730000 </v>
    </varray>
    <i name="volume">    177.58702368 </i>
    <varray name="rec_basis" >
     <v>       0.34508164       0.00000000       0.00000000 </v>
     <v>       0.00000000       0.34508164       0.00000000 </v>
     <v>       0.00000000       0.00000000       0.04728736 </v>
    </varray>
   </crystal>
   <varray name="positions" >
    <v>       0.44893251       0.44893251       0.50000000 </v>
    <v>      -0.05330125      -0.05330125       0.53810914 </v>
    <v>       0.50223409       0.50223409       0.60919065 </v>
    <v>      -0.02680538      -0.02680538       0.66606547 </v>
   </varray>
  </structure>
  <varray name="forces" >
   <v>      -0.91993022      -0.91993022     -23.45535982 </v>
   <v>       2.67865224       2.67865224       6.84534223 </v>
   <v>      -4.28268567      -4.28268567       4.30866290 </v>
   <v>       2.52396365       2.52396365      12.30135469 </v>
  </varray>
  <varray name="stress" >
   <v>     702.65992815      15.61889319      10.21274262 </v>
   <v>      15.61889273     702.65992808      10.21274302 </v>
   <v>      10.21274271      10.21274259     529.08576201 </v>
  </varray>
  <energy>
   <i name="e_fr_energy">      2.17562691 </i>
   <i name="e_wo_entrp">      2.17671602 </i>
   <i name="e_0_energy">     -0.00217821 </i>
  </energy>
  <time name="totalsc">  242.57  242.89</time>
 </calculation>
 <calculation>
  <scstep>
   <time name="dav">   11.00   11.02</time>
   <time name="total">   12.04   12.06</time>
   <energy>
    <i name="alphaZ">    104.94424882 </i>
    <i name="ewald">  17442.51044832 </i>
    <i name="hartreedc"> -21147.19008744 </i>
    <i name="XCdc">     67.06835494 </i>
    <i name="pawpsdc">   6673.18206385 </i>
    <i name="pawaedc">  -6605.92029274 </i>
    <i name="eentropy">     -0.00216405 </i>
    <i name="bandstr">   -234.26468495 </i>
    <i name="atom">   3704.32389242 </i>
    <i name="e_fr_energy">      4.65177918 </i>
    <i name="e_wo_entrp">      4.65394323 </i>
    <i name="e_0_energy">      4.65286120 </i>
   </energy>
  </scstep>
  <scstep>
   <time name="dav">   11.37   11.38</time>
   <time name="total">   12.38   12.40</time>
   <energy>
    <i name="e_fr_energy">      4.59108237 </i>
    <i name="e_wo_entrp">      4.59328911 </i>
    <i name="e_0_energy">      4.59218574 </i>
   </energy>
  </scstep>
  <scstep>
   <time name="dav">   11.66   11.67</time>
   <time name="total">   12.63   12.64</time>
   <energy>
    <i name="e_fr_energy">      4.59659557 </i>
    <i name="e_wo_entrp">      4.59875986 </i>
    <i name="e_0_energy">      4.59767772 </i>
   </energy>
  </scstep>
  <scstep>
   <time name="dav">   11.47   11.48</time>
   <time name="total">   12.46   12.47</time>
   <energy>
    <i name="e_fr_energy">      4.59855520 </i>
    <i name="e_wo_entrp">      4.60075281 </i>
    <i name="e_0_energy">      4.59965401 </i>
   </energy>
  </scstep>
  <scstep>
   <time name="dav">   11.69   11.70</time>
   <time name="total">   12.68   12.69</time>
   <energy>
    <i name="e_fr_energy">      4.59900519 </i>
    <i name="e_wo_entrp">      4.60118366 </i>
    <i name="e_0_energy">      4.60009442 </i>
   </energy>
  </scstep>
  <scstep>
   <time name="dav">   11.57   11.58</time>
   <time name="total">   12.55   12.56</time>
   <energy>
    <i name="e_fr_energy">      4.59934956 </i>
    <i name="e_wo_entrp">      4.60153773 </i>
    <i name="e_0_energy">      4.60044364 </i>
   </energy>
  </scstep>
  <scstep>
   <time name="dav">   12.40   12.41</time>
   <time name="total">   13.40   13.42</time>
   <energy>
    <i name="e_fr_energy">      4.59935430 </i>
    <i name="e_wo_entrp">      4.60154284 </i>
    <i name="e_0_energy">      4.60044857 </i>
   </energy>
  </scstep>
  <scstep>
   <time name="dav">   11.20   11.21</time>
   <time name="total">   12.18   12.19</time>
   <energy>
    <i name="e_fr_energy">      4.59935215 </i>
    <i name="e_wo_entrp">      4.60153996 </i>
    <i name="e_0_energy">      4.60044605 </i>
   </energy>
  </scstep>
  <scstep>
   <time name="dav">    8.93    8.94</time>
   <time name="total">    9.90    9.91</time>
   <energy>
    <i name="e_fr_energy">      4.59935015 </i>
    <i name="e_wo_entrp">      4.60153873 </i>
    <i name="e_0_energy">      4.60044444 </i>
   </energy>
  </scstep>
  <scstep>
   <time name="dav">    8.82    8.82</time>
   <time name="total">    9.77    9.78</time>
   <energy>
    <i name="e_fr_energy">      4.59934711 </i>
    <i name="e_wo_entrp">      4.60153551 </i>
    <i name="e_0_energy">      4.60044131 </i>
   </energy>
  </scstep>
  <scstep>
   <time name="dav">    8.62    8.63</time>
   <time name="total">    9.57    9.58</time>
   <energy>
    <i name="e_fr_energy">      4.59934444 </i>
    <i name="e_wo_entrp">      4.60153285 </i>
    <i name="e_0_energy">      4.60043864 </i>
   </energy>
  </scstep>
  <scstep>
   <time name="dav">    8.73    8.74</time>
   <time name="total">    9.75    9.78</time>
   <energy>
    <i name="e_fr_energy">      4.59934142 </i>
    <i name="e_wo_entrp">      4.60152995 </i>
    <i name="e_0_energy">      4.60043568 </i>
   </energy>
  </scstep>
  <scstep>
   <time name="dav">    8.77    8.78</time>
   <time name="total">    9.80    9.81</time>
   <energy>
    <i name="e_fr_energy">      4.59934002 </i>
    <i name="e_wo_entrp">      4.60152857 </i>
    <i name="e_0_energy">      4.60043430 </i>
   </energy>
  </scstep>
  <scstep>
   <time name="dav">    8.60    8.61</time>
   <time name="total">    8.68    8.70</time>
   <energy>
    <i name="alphaZ">    104.94424882 </i>
    <i name="ewald">  17442.51044832 </i>
    <i name="hartreedc"> -21149.25033630 </i>
    <i name="XCdc">     67.07100545 </i>
    <i name="pawpsdc">   6588.39027106 </i>
    <i name="pawaedc">  -6520.87634054 </i>
    <i name="eentropy">     -0.00218855 </i>
    <i name="bandstr">   -232.51166128 </i>
    <i name="atom">   3704.32389242 </i>
    <i name="e_fr_energy">      4.59933940 </i>
    <i name="e_wo_entrp">      4.60152794 </i>
    <i name="e_0_energy">      4.60043367 </i>
   </energy>
  </scstep>
  <dipole>
   <v name="dipole">      0.00000000       0.00000000       0.00321469 </v>
   <i name="Tr[quadrupol]">    -80.33434469 </i>
   <i name="Echarged">      0.00000000 </i>
   <i name="Edipol_quadrupol">      0.00000000 </i>
   <i name="Eion">      0.00000000 </i>
  </dipole>
  <structure>
   <crystal>
    <varray name="basis" >
     <v>       2.89786501       0.00000000       0.00000000 </v>
     <v>       0.00000000       2.89786501       0.00000000 </v>
     <v>       0.00000000       0.00000000      21.14730000 </v>
    </varray>
    <i name="volume">    177.58702368 </i>
    <varray name="rec_basis" >
     <v>       0.34508164       0.00000000       0.00000000 </v>
     <v>       0.00000000       0.34508164       0.00000000 </v>
     <v>       0.00000000       0.00000000       0.04728736 </v>
    </varray>
   </crystal>
   <varray name="positions" >
    <v>       0.44893251       0.44893251       0.50000000 </v>
    <v>      -0.06260475      -0.06260475       0.53619074 </v>
    <v>       0.51153764       0.51153764       0.61110902 </v>
    <v>      -0.03148414      -0.03148414       0.66934089 </v>
   </varray>
  </structure>
  <varray name="forces" >
   <v>      -2.93204708      -2.93204708     -22.34518326 </v>
   <v>       4.91992097       4.91992097       8.22769059 </v>
   <v>      -5.49107294      -5.49107293       2.32347919 </v>
   <v>       3.50319904       3.50319904      11.79401348 </v>
  </varray>
  <varray name="stress" >
   <v>     703.96005096      27.54687284      30.77539539 </v>
   <v>      27.54687263     703.96005059      30.77539518 </v>
   <v>      30.77539565      30.77539535     486.89352043 </v>
  </varray>
  <energy>
   <i name="e_fr_energy">      2.06690309 </i>
   <i name="e_wo_entrp">      2.06799737 </i>
   <i name="e_0_energy">     -0.00218855 </i>
  </energy>
  <time name="totalsc">  174.62  174.87</time>
 </calculation>
 <calculation>
  <scstep>
   <time name="dav">   10.96   10.97</time>
   <time name="total">   12.02   12.05</time>
   <energy>
    <i name="alphaZ">    104.94424882 </i>
    <i name="ewald">  16470.81102893 </i>
    <i name="hartreedc"> -20198.31117166 </i>
    <i name="XCdc">     65.65423672 </i>
    <i name="pawpsdc">   6588.38965365 </i>
    <i name="pawaedc">  -6520.87571742 </i>
    <i name="eentropy">     -0.00185384 </i>
    <i name="bandstr">   -214.49757428 </i>
    <i name="atom">   3704.32389242 </i>
    <i name="e_fr_energy">      0.43674334 </i>
    <i name="e_wo_entrp">      0.43859718 </i>
    <i name="e_0_energy">      0.43767026 </i>
   </energy>
  </scstep>
  <scstep>
   <time name="dav">   11.31   11.33</time>
   <time name="total">   12.31   12.33</time>
   <energy>
    <i name="e_fr_energy">     -0.89451815 </i>
    <i name="e_wo_entrp">     -0.89297328 </i>
    <i name="e_0_energy">     -0.89374572 </i>
   </energy>
  </scstep>
  <scstep>
   <time name="dav">   12.20   12.21</time>
   <time name="total">   13.18   13.20</time>
   <energy>
    <i name="e_fr_energy">     -0.90522918 </i>
    <i name="e_wo_entrp">     -0.90366090 </i>
    <i name="e_0_energy">     -0.90444504 </i>
   </energy>
  </scstep>
  <scstep>
   <time name="dav">   11.18   11.19</time>
   <time name="total">   12.17   12.18</time>
   <energy>
    <i name="e_fr_energy">     -0.82000063 </i>
    <i name="e_wo_entrp">     -0.81801532 </i>
    <i name="e_0_energy">     -0.81900797 </i>
   </energy>
  </scstep>
  <scstep>
   <time name="dav">   11.47   11.48</time>
   <time name="total">   12.47   12.48</time>
   <energy>
    <i name="e_fr_energy">     -0.84038020 </i>
    <i name="e_wo_entrp">     -0.83844591 </i>
    <i name="e_0_energy">     -0.83941306 </i>
   </energy>
  </scstep>
  <scstep>
   <time name="dav">   11.48   11.50</time>
   <time name="total">   12.48   12.51</time>
   <energy>
    <i name="e_fr_energy">     -0.81672335 </i>
    <i name="e_wo_entrp">     -0.81483007 </i>
    <i name="e_0_energy">     -0.81577671 </i>
   </energy>
  </scstep>
  <scstep>
   <time name="dav">   11.53   11.54</time>
   <time name="total">   12.51   12.52</time>
   <energy>
    <i name="e_fr_energy">     -0.80321360 </i>
    <i name="e_wo_entrp">     -0.80131792 </i>
    <i name="e_0_energy">     -0.80226576 </i>
   </energy>
  </scstep>
  <scstep>
   <time name="dav">   11.60   11.62</time>
   <time name="total">   12.63   12.64</time>
   <energy>
    <i name="e_fr_energy">     -0.79826009 </i>
    <i name="e_wo_entrp">     -0.79636713 </i>
    <i name="e_0_energy">     -0.79731361 </i>
   </energy>
  </scstep>
  <scstep>
   <time name="dav">   12.00   12.01</time>
   <time name="total">   13.03   13.05</time>
   <energy>
    <i name="e_fr_energy">     -0.79700743 </i>
    <i name="e_wo_entrp">     -0.79512724 </i>
    <i name="e_0_energy">     -0.79606734 </i>
   </energy>
  </scstep>
  <scstep>
   <time name="dav">   11.64   11.64</time>
   <time name="total">   12.63   12.64</time>
   <energy>
    <i name="e_fr_energy">     -0.79670762 </i>
    <i name="e_wo_entrp">     -0.79483819 </i>
    <i name="e_0_energy">     -0.79577290 </i>
   </energy>
  </scstep>
  <scstep>
   <time name="dav">   12.11   12.12</time>
   <time name="total">   13.10   13.12</time>
   <energy>
    <i name="e_fr_energy">     -0.79671218 </i>
    <i name="e_wo_entrp">     -0.79484142 </i>
    <i name="e_0_energy">     -0.79577680 </i>
   </energy>
  </scstep>
  <scstep>
   <time name="dav">   11.60   11.62</time>
   <time name="total">   12.58   12.59</time>
   <energy>
    <i name="e_fr_energy">     -0.79671026 </i>
    <i name="e_wo_entrp">     -0.79484081 </i>
    <i name="e_0_energy">     -0.79577554 </i>
   </energy>
  </scstep>
  <scstep>
   <time name="dav">   11.52   11.53</time>
   <time name="total">   12.55   12.56</time>
   <energy>
    <i name="e_fr_energy">     -0.79671397 </i>
    <i name="e_wo_entrp">     -0.79484563 </i>
    <i name="e_0_energy">     -0.79577980 </i>
   </energy>
  </scstep>
  <scstep>
   <time name="dav">    9.89    9.90</time>
   <time name="total">    9.98   10.00</time>
   <energy>
    <i name="alphaZ">    104.94424882 </i>
    <i name="ewald">  16470.81102893 </i>
    <i name="hartreedc"> -20201.78432212 </i>
    <i name="XCdc">     65.58342285 </i>
    <i name="pawpsdc">   5932.83442891 </i>
    <i name="pawaedc">  -5861.79965121 </i>
    <i name="eentropy">     -0.00186896 </i>
    <i name="bandstr">   -215.70789343 </i>
    <i name="atom">   3704.32389242 </i>
    <i name="e_fr_energy">     -0.79671380 </i>
    <i name="e_wo_entrp">     -0.79484484 </i>
    <i name="e_0_energy">     -0.79577932 </i>
   </energy>
  </scstep>
  <dipole>
   <v name="dipole">      0.00000000       0.00000000      -0.00086169 </v>
   <i name="Tr[quadrupol]">    -78.93649835 </i>
   <i name="Echarged">      0.00000000 </i>
   <i name="Edipol_quadrupol">      0.00000000 </i>
   <i name="Eion">      0.00000000 </i>
  </dipole>
  <structure>
   <crystal>
    <varray name="basis" >
     <v>       2.89786501       0.00000000       0.00000000 </v>
     <v>       0.00000000       2.89786501       0.00000000 </v>
     <v>       0.00000000       0.00000000      21.14730000 </v>
    </varray>
    <i name="volume">    177.58702368 </i>
    <varray name="rec_basis" >
     <v>       0.34508164       0.00000000       0.00000000 </v>
     <v>       0.00000000       0.34508164       0.00000000 </v>
     <v>       0.00000000       0.00000000       0.04728736 </v>
    </varray>
   </crystal>
   <varray name="positions" >
    <v>       0.44893251       0.44893251       0.50000000 </v>
    <v>      -0.03910403      -0.03910403       0.54189347 </v>
    <v>       0.48370467       0.48370467       0.61637341 </v>
    <v>      -0.01186065      -0.01186065       0.68646483 </v>
   </varray>
  </structure>
  <varray name="forces" >
   <v>       1.86738688       1.86738687     -19.14860878 </v>
   <v>      -1.37301065      -1.37301065       9.43219087 </v>
   <v>      -0.36784969      -0.36784969       3.90496993 </v>
   <v>      -0.12652653      -0.12652653       5.81144798 </v>
  </varray>
  <varray name="stress" >
   <v>     512.20102543       3.74216230     -23.63621019 </v>
   <v>       3.74216273     512.20102557     -23.63620999 </v>
   <v>     -23.63621023     -23.63621001     368.70689982 </v>
  </varray>
  <energy>
   <i name="e_fr_energy">     -3.19919664 </i>
   <i name="e_wo_entrp">     -3.19826216 </i>
   <i name="e_0_energy">     -0.00186896 </i>
  </energy>
  <time name="totalsc">  190.63  190.89</time>
 </calculation>
 <calculation>
  <scstep>
   <time name="dav">   10.90   10.91</time>
   <time name="total">   11.95   11.97</time>
   <energy>
    <i name="alphaZ">    104.94424882 </i>
    <i name="ewald">  15616.96501946 </i>
    <i name="hartreedc"> -19360.32305560 </i>
    <i name="XCdc">     64.57342459 </i>
    <i name="pawpsdc">   5932.38521630 </i>
    <i name="pawaedc">  -5861.35010942 </i>
    <i name="eentropy">     -0.00188374 </i>
    <i name="bandstr">   -203.79461606 </i>
    <i name="atom">   3704.32389242 </i>
    <i name="e_fr_energy">     -2.27786323 </i>
    <i name="e_wo_entrp">     -2.27597949 </i>
    <i name="e_0_energy">     -2.27692136 </i>
   </energy>
  </scstep>
  <scstep>
   <time name="dav">   11.39   11.40</time>
   <time name="total">   12.35   12.36</time>
   <energy>
    <i name="e_fr_energy">     -3.23220563 </i>
    <i name="e_wo_entrp">     -3.23027949 </i>
    <i name="e_0_energy">     -3.23124256 </i>
   </energy>
  </scstep>
  <scstep>
   <time name="dav">   12.47   12.48</time>
   <time name="total">   13.55   13.57</time>
   <energy>
    <i name="e_fr_energy">     -3.23122553 </i>
    <i name="e_wo_entrp">     -3.22930883 </i>
    <i name="e_0_energy">     -3.23026718 </i>
   </energy>
  </scstep>
  <scstep>
   <time name="dav">   11.58   11.59</time>
   <time name="total">   12.60   12.61</time>
   <energy>
    <i name="e_fr_energy">     -3.16942968 </i>
    <i name="e_wo_entrp">     -3.16750091 </i>
    <i name="e_0_energy">     -3.16846529 </i>
   </energy>
  </scstep>
  <scstep>
   <time name="dav">   11.64   11.66</time>
   <time name="total">   12.64   12.66</time>
   <energy>
    <i name="e_fr_energy">     -3.16788703 </i>
    <i name="e_wo_entrp">     -3.16589903 </i>
    <i name="e_0_energy">     -3.16689303 </i>
   </energy>
  </scstep>
  <scstep>
   <time name="dav">   11.62   11.63</time>
   <time name="total">   12.60   12.62</time>
   <energy>
    <i name="e_fr_energy">     -3.16712761 </i>
    <i name="e_wo_entrp">     -3.16511458 </i>
    <i name="e_0_energy">     -3.16612110 </i>
   </energy>
  </scstep>
  <scstep>
   <time name="dav">   11.62   11.64</time>
   <time name="total">   12.61   12.64</time>
   <energy>
    <i name="e_fr_energy">     -3.16325731 </i>
    <i name="e_wo_entrp">     -3.16122380 </i>
    <i name="e_0_energy">     -3.16224056 </i>
   </energy>
  </scstep>
  <scstep>
   <time name="dav">   11.69   11.70</time>
   <time name="total">   12.70   12.72</time>
   <energy>
    <i name="e_fr_energy">     -3.16263049 </i>
    <i name="e_wo_entrp">     -3.16059850 </i>
    <i name="e_0_energy">     -3.16161449 </i>
   </energy>
  </scstep>
  <scstep>
   <time name="dav">   14.30   14.31</time>
   <time name="total">   15.32   15.33</time>
   <energy>
    <i name="e_fr_energy">     -3.16262934 </i>
    <i name="e_wo_entrp">     -3.16059498 </i>
    <i name="e_0_energy">     -3.16161216 </i>
   </energy>
  </scstep>
  <scstep>
   <time name="dav">   11.60   11.61</time>
   <time name="total">   12.55   12.57</time>
   <energy>
    <i name="e_fr_energy">     -3.16262980 </i>
    <i name="e_wo_entrp">     -3.16059453 </i>
    <i name="e_0_energy">     -3.16161217 </i>
   </energy>
  </scstep>
  <scstep>
   <time name="dav">   11.55   11.56</time>
   <time name="total">   12.55   12.58</time>
   <energy>
    <i name="e_fr_energy">     -3.16263092 </i>
    <i name="e_wo_entrp">     -3.16059519 </i>
    <i name="e_0_energy">     -3.16161306 </i>
   </energy>
  </scstep>
  <scstep>
   <time name="dav">    8.60    8.61</time>
   <time name="total">    9.61    9.62</time>
   <energy>
    <i name="e_fr_energy">     -3.16263336 </i>
    <i name="e_wo_entrp">     -3.16059755 </i>
    <i name="e_0_energy">     -3.16161546 </i>
   </energy>
  </scstep>
  <scstep>
   <time name="dav">    8.26    8.27</time>
   <time name="total">    9.26    9.27</time>
   <energy>
    <i name="e_fr_energy">     -3.16263475 </i>
    <i name="e_wo_entrp">     -3.16059892 </i>
    <i name="e_0_energy">     -3.16161684 </i>
   </energy>
  </scstep>
  <scstep>
   <time name="dav">    8.62    8.63</time>
   <time name="total">    9.59    9.60</time>
   <energy>
    <i name="e_fr_energy">     -3.16263773 </i>
    <i name="e_wo_entrp">     -3.16060189 </i>
    <i name="e_0_energy">     -3.16161981 </i>
   </energy>
  </scstep>
  <scstep>
   <time name="dav">    8.50    8.50</time>
   <time name="total">    8.63    8.64</time>
   <energy>
    <i name="alphaZ">    104.94424882 </i>
    <i name="ewald">  15616.96501946 </i>
    <i name="hartreedc"> -19362.45182958 </i>
    <i name="XCdc">     64.54200890 </i>
    <i name="pawpsdc">   5572.46131943 </i>
    <i name="pawaedc">  -5499.24496422 </i>
    <i name="eentropy">     -0.00203585 </i>
    <i name="bandstr">   -204.70029799 </i>
    <i name="atom">   3704.32389242 </i>
    <i name="e_fr_energy">     -3.16263861 </i>
    <i name="e_wo_entrp">     -3.16060276 </i>
    <i name="e_0_energy">     -3.16162069 </i>
   </energy>
  </scstep>
  <dipole>
   <v name="dipole">      0.00000000       0.00000000       0.00276312 </v>
   <i name="Tr[quadrupol]">    -74.39666215 </i>
   <i name="Echarged">      0.00000000 </i>
   <i name="Edipol_quadrupol">      0.00000000 </i>
   <i name="Eion">      0.00000000 </i>
  </dipole>
[...]
       <r>     4.0997     0.7017    24.5536 </r>
       <r>     4.1606     0.4369    24.5802 </r>
       <r>     4.2216     0.4022    24.6048 </r>
       <r>     4.2825     0.6047    24.6416 </r>
       <r>     4.3435     0.4362    24.6682 </r>
       <r>     4.4045     0.3807    24.6914 </r>
       <r>     4.4654     0.8219    24.7415 </r>
       <r>     4.5264     1.1984    24.8146 </r>
       <r>     4.5873     1.0731    24.8800 </r>
       <r>     4.6483     0.4476    24.9073 </r>
       <r>     4.7093     0.2151    24.9204 </r>
       <r>     4.7702     0.4428    24.9474 </r>
       <r>     4.8312     0.3056    24.9660 </r>
       <r>     4.8921     0.2915    24.9838 </r>
       <r>     4.9531     0.8737    25.0371 </r>
       <r>     5.0141     0.5402    25.0700 </r>
       <r>     5.0750     0.3336    25.0903 </r>
       <r>     5.1360     0.8660    25.1431 </r>
       <r>     5.1969     0.7288    25.1875 </r>
       <r>     5.2579     0.2865    25.2050 </r>
       <r>     5.3189     0.5670    25.2396 </r>
       <r>     5.3798     1.0632    25.3044 </r>
       <r>     5.4408     1.2954    25.3833 </r>
       <r>     5.5017     0.9621    25.4420 </r>
       <r>     5.5627     1.2451    25.5179 </r>
       <r>     5.6237     1.5970    25.6153 </r>
       <r>     5.6846     1.2065    25.6888 </r>
       <r>     5.7456     1.3032    25.7682 </r>
       <r>     5.8065     0.9082    25.8236 </r>
       <r>     5.8675     1.1235    25.8921 </r>
       <r>     5.9285     1.1498    25.9622 </r>
       <r>     5.9894     1.4787    26.0523 </r>
       <r>     6.0504     1.8703    26.1663 </r>
       <r>     6.1113     0.9387    26.2236 </r>
       <r>     6.1723     0.6025    26.2603 </r>
       <r>     6.2333     1.5029    26.3519 </r>
       <r>     6.2942     1.4295    26.4390 </r>
       <r>     6.3552     0.8825    26.4928 </r>
       <r>     6.4161     0.8646    26.5456 </r>
       <r>     6.4771     1.0252    26.6080 </r>
       <r>     6.5380     0.6806    26.6495 </r>
       <r>     6.5990     0.7847    26.6974 </r>
       <r>     6.6600     1.3943    26.7824 </r>
       <r>     6.7209     1.4956    26.8735 </r>
       <r>     6.7819     1.0469    26.9374 </r>
       <r>     6.8428     0.9712    26.9966 </r>
       <r>     6.9038     1.0923    27.0631 </r>
       <r>     6.9648     1.1497    27.1332 </r>
       <r>     7.0257     1.1121    27.2010 </r>
       <r>     7.0867     0.8897    27.2553 </r>
       <r>     7.1476     0.8487    27.3070 </r>
       <r>     7.2086     0.9655    27.3659 </r>
       <r>     7.2696     1.5969    27.4632 </r>
       <r>     7.3305     1.4973    27.5545 </r>
       <r>     7.3915     0.8727    27.6077 </r>
       <r>     7.4524     0.4030    27.6322 </r>
       <r>     7.5134     0.9251    27.6886 </r>
       <r>     7.5744     1.1431    27.7583 </r>
       <r>     7.6353     0.6003    27.7949 </r>
       <r>     7.6963     0.8057    27.8440 </r>
       <r>     7.7572     0.7766    27.8914 </r>
       <r>     7.8182     0.4131    27.9166 </r>
       <r>     7.8792     0.2245    27.9302 </r>
       <r>     7.9401     0.2330    27.9444 </r>
       <r>     8.0011     0.1786    27.9553 </r>
       <r>     8.0620     0.2726    27.9719 </r>
       <r>     8.1230     0.3926    27.9959 </r>
       <r>     8.1840     0.0666    27.9999 </r>
       <r>     8.2449     0.0010    28.0000 </r>
       <r>     8.3059     0.0000    28.0000 </r>
       <r>     8.3668     0.0000    28.0000 </r>
       <r>     8.4278     0.0000    28.0000 </r>
       <r>     8.4888     0.0000    28.0000 </r>
       <r>     8.5497     0.0000    28.0000 </r>
       <r>     8.6107     0.0000    28.0000 </r>
       <r>     8.6716     0.0000    28.0000 </r>
       <r>     8.7326     0.0000    28.0000 </r>
       <r>     8.7935     0.0000    28.0000 </r>
       <r>     8.8545     0.0000    28.0000 </r>
       <r>     8.9155     0.0000    28.0000 </r>
      </set>
      <set comment="spin 2">
       <r>    -9.3724     0.0000     0.0000 </r>
       <r>    -9.3114     0.0000     0.0000 </r>
       <r>    -9.2505     0.0000     0.0000 </r>
       <r>    -9.1895     0.0000     0.0000 </r>
       <r>    -9.1285     0.0000     0.0000 </r>
       <r>    -9.0676     0.0000     0.0000 </r>
       <r>    -9.0066     0.0000     0.0000 </r>
       <r>    -8.9457     0.0000     0.0000 </r>
       <r>    -8.8847     0.0000     0.0000 </r>
       <r>    -8.8237     0.0000     0.0000 </r>
       <r>    -8.7628     0.0000     0.0000 </r>
       <r>    -8.7018     0.0000     0.0000 </r>
       <r>    -8.6409     0.0001     0.0000 </r>
       <r>    -8.5799     0.0065     0.0004 </r>
       <r>    -8.5189     0.0518     0.0036 </r>
       <r>    -8.4580     0.1442     0.0124 </r>
       <r>    -8.3970     0.1564     0.0219 </r>
       <r>    -8.3361     0.0779     0.0266 </r>
       <r>    -8.2751     0.1675     0.0368 </r>
       <r>    -8.2141     0.2620     0.0528 </r>
       <r>    -8.1532     0.0860     0.0581 </r>
       <r>    -8.0922     0.0375     0.0603 </r>
       <r>    -8.0313     0.1724     0.0708 </r>
       <r>    -7.9703     0.2532     0.0863 </r>
       <r>    -7.9093     0.2282     0.1002 </r>
       <r>    -7.8484     0.0443     0.1029 </r>
       <r>    -7.7874     0.1273     0.1107 </r>
       <r>    -7.7265     0.2018     0.1230 </r>
       <r>    -7.6655     0.0859     0.1282 </r>
       <r>    -7.6045     0.2121     0.1411 </r>
       <r>    -7.5436     0.2476     0.1562 </r>
       <r>    -7.4826     0.1474     0.1652 </r>
       <r>    -7.4217     0.1926     0.1769 </r>
       <r>    -7.3607     0.2030     0.1893 </r>
       <r>    -7.2997     0.0347     0.1914 </r>
       <r>    -7.2388     0.0854     0.1966 </r>
       <r>    -7.1778     0.2832     0.2139 </r>
       <r>    -7.1169     0.4029     0.2385 </r>
       <r>    -7.0559     0.1526     0.2478 </r>
       <r>    -6.9950     0.2297     0.2618 </r>
       <r>    -6.9340     0.2887     0.2794 </r>
       <r>    -6.8730     0.2072     0.2920 </r>
       <r>    -6.8121     0.3345     0.3124 </r>
       <r>    -6.7511     0.7517     0.3582 </r>
       <r>    -6.6902     0.5250     0.3902 </r>
       <r>    -6.6292     0.2134     0.4032 </r>
       <r>    -6.5682     0.5290     0.4355 </r>
       <r>    -6.5073     0.4709     0.4642 </r>
       <r>    -6.4463     0.4584     0.4921 </r>
       <r>    -6.3854     0.7452     0.5376 </r>
       <r>    -6.3244     0.9908     0.5980 </r>
       <r>    -6.2634     1.0391     0.6613 </r>
       <r>    -6.2025     1.4798     0.7515 </r>
       <r>    -6.1415     1.8125     0.8620 </r>
       <r>    -6.0806     1.4351     0.9495 </r>
       <r>    -6.0196     1.5135     1.0417 </r>
       <r>    -5.9586     1.2663     1.1189 </r>
       <r>    -5.8977     1.4613     1.2080 </r>
       <r>    -5.8367     2.1395     1.3384 </r>
       <r>    -5.7758     2.3047     1.4789 </r>
       <r>    -5.7148     2.3611     1.6229 </r>
       <r>    -5.6538     3.2657     1.8219 </r>
       <r>    -5.5929     3.1889     2.0163 </r>
       <r>    -5.5319     3.2209     2.2127 </r>
       <r>    -5.4710     3.1332     2.4037 </r>
       <r>    -5.4100     3.5836     2.6221 </r>
       <r>    -5.3490     3.8671     2.8579 </r>
       <r>    -5.2881     2.6735     3.0208 </r>
       <r>    -5.2271     3.3730     3.2265 </r>
       <r>    -5.1662     4.0703     3.4746 </r>
       <r>    -5.1052     3.5905     3.6935 </r>
       <r>    -5.0442     2.8623     3.8679 </r>
       <r>    -4.9833     2.6428     4.0290 </r>
       <r>    -4.9223     2.3961     4.1751 </r>
       <r>    -4.8614     2.3549     4.3187 </r>
       <r>    -4.8004     2.8695     4.4936 </r>
       <r>    -4.7395     3.8307     4.7271 </r>
       <r>    -4.6785     2.5029     4.8797 </r>
       <r>    -4.6175     2.4008     5.0260 </r>
       <r>    -4.5566     3.6708     5.2498 </r>
       <r>    -4.4956     3.9379     5.4898 </r>
       <r>    -4.4347     3.8656     5.7255 </r>
       <r>    -4.3737     4.4092     5.9943 </r>
       <r>    -4.3127     3.3365     6.1977 </r>
       <r>    -4.2518     3.2398     6.3952 </r>
       <r>    -4.1908     3.0187     6.5792 </r>
       <r>    -4.1299     4.7734     6.8702 </r>
       <r>    -4.0689     5.0071     7.1754 </r>
       <r>    -4.0079     4.0957     7.4251 </r>
       <r>    -3.9470     4.3651     7.6912 </r>
       <r>    -3.8860     2.9089     7.8685 </r>
       <r>    -3.8251     3.7510     8.0972 </r>
       <r>    -3.7641     5.5035     8.4326 </r>
       <r>    -3.7031     7.1047     8.8657 </r>
       <r>    -3.6422     7.3303     9.3126 </r>
       <r>    -3.5812     5.1196     9.6247 </r>
       <r>    -3.5203     3.9751     9.8670 </r>
       <r>    -3.4593     4.4527    10.1384 </r>
       <r>    -3.3983     5.2870    10.4607 </r>
       <r>    -3.3374     4.0234    10.7060 </r>
       <r>    -3.2764     3.0329    10.8909 </r>
       <r>    -3.2155     2.3760    11.0357 </r>
       <r>    -3.1545     2.9918    11.2181 </r>
       <r>    -3.0935     4.2441    11.4768 </r>
       <r>    -3.0326     4.0328    11.7226 </r>
       <r>    -2.9716     4.7500    12.0122 </r>
       <r>    -2.9107     4.5075    12.2870 </r>
       <r>    -2.8497     5.5336    12.6243 </r>
       <r>    -2.7887     6.6510    13.0297 </r>
       <r>    -2.7278     6.4658    13.4239 </r>
       <r>    -2.6668     4.5527    13.7014 </r>
       <r>    -2.6059     3.3878    13.9079 </r>
       <r>    -2.5449     4.6250    14.1899 </r>
       <r>    -2.4840     3.6493    14.4123 </r>
       <r>    -2.4230     3.5954    14.6315 </r>
       <r>    -2.3620     4.1094    14.8820 </r>
       <r>    -2.3011     5.0000    15.1868 </r>
       <r>    -2.2401     6.2821    15.5698 </r>
       <r>    -2.1792     5.8786    15.9281 </r>
       <r>    -2.1182     4.7893    16.2201 </r>
       <r>    -2.0572     4.8904    16.5182 </r>
       <r>    -1.9963     4.4104    16.7870 </r>
       <r>    -1.9353     4.8877    17.0850 </r>
       <r>    -1.8744     6.4869    17.4804 </r>
       <r>    -1.8134     6.3261    17.8661 </r>
       <r>    -1.7524     6.6461    18.2712 </r>
       <r>    -1.6915     5.7069    18.6191 </r>
       <r>    -1.6305     4.2031    18.8753 </r>
       <r>    -1.5696     4.6285    19.1575 </r>
       <r>    -1.5086     5.1241    19.4698 </r>
       <r>    -1.4476     5.4154    19.8000 </r>
       <r>    -1.3867     5.8577    20.1570 </r>
       <r>    -1.3257     5.9419    20.5193 </r>
       <r>    -1.2648     3.9851    20.7622 </r>
       <r>    -1.2038     1.6393    20.8621 </r>
       <r>    -1.1428     1.5555    20.9569 </r>
       <r>    -1.0819     1.3183    21.0373 </r>
       <r>    -1.0209     0.6010    21.0739 </r>
       <r>    -0.9600     0.5467    21.1073 </r>
       <r>    -0.8990     1.0965    21.1741 </r>
       <r>    -0.8380     0.9016    21.2291 </r>
       <r>    -0.7771     0.7662    21.2758 </r>
       <r>    -0.7161     0.8541    21.3278 </r>
       <r>    -0.6552     1.0641    21.3927 </r>
       <r>    -0.5942     0.6898    21.4348 </r>
       <r>    -0.5332     0.3483    21.4560 </r>
       <r>    -0.4723     0.3755    21.4789 </r>
       <r>    -0.4113     0.5068    21.5098 </r>
       <r>    -0.3504     0.5122    21.5410 </r>
       <r>    -0.2894     0.8711    21.5941 </r>
       <r>    -0.2285     0.6029    21.6309 </r>
       <r>    -0.1675     0.1667    21.6410 </r>
       <r>    -0.1065     0.2639    21.6571 </r>
       <r>    -0.0456     0.4665    21.6855 </r>
       <r>     0.0154     0.8796    21.7392 </r>
       <r>     0.0763     0.7475    21.7847 </r>
       <r>     0.1373     0.9122    21.8403 </r>
       <r>     0.1983     0.5833    21.8759 </r>
       <r>     0.2592     0.5144    21.9072 </r>
       <r>     0.3202     0.5300    21.9395 </r>
       <r>     0.3811     0.6083    21.9766 </r>
       <r>     0.4421     0.6481    22.0161 </r>
       <r>     0.5031     0.6881    22.0581 </r>
       <r>     0.5640     0.6193    22.0958 </r>
       <r>     0.6250     0.5657    22.1303 </r>
       <r>     0.6859     0.5373    22.1631 </r>
       <r>     0.7469     0.4251    22.1890 </r>
       <r>     0.8079     0.4136    22.2142 </r>
       <r>     0.8688     0.5695    22.2489 </r>
       <r>     0.9298     0.6033    22.2857 </r>
       <r>     0.9907     1.0578    22.3502 </r>
       <r>     1.0517     1.1188    22.4184 </r>
       <r>     1.1127     0.8725    22.4716 </r>
       <r>     1.1736     0.4207    22.4972 </r>
       <r>     1.2346     0.4513    22.5247 </r>
       <r>     1.2955     0.4885    22.5545 </r>
       <r>     1.3565     0.5987    22.5910 </r>
       <r>     1.4175     0.6850    22.6328 </r>
       <r>     1.4784     0.8328    22.6835 </r>
       <r>     1.5394     0.6777    22.7248 </r>
       <r>     1.6003     0.5320    22.7573 </r>
       <r>     1.6613     0.4620    22.7854 </r>
       <r>     1.7223     0.2249    22.7991 </r>
       <r>     1.7832     0.3038    22.8177 </r>
       <r>     1.8442     0.4666    22.8461 </r>
       <r>     1.9051     0.9871    22.9063 </r>
       <r>     1.9661     1.0160    22.9682 </r>
       <r>     2.0270     0.6359    23.0070 </r>
       <r>     2.0880     0.5922    23.0431 </r>
       <r>     2.1490     0.8227    23.0932 </r>
       <r>     2.2099     0.7055    23.1362 </r>
       <r>     2.2709     0.4501    23.1637 </r>
       <r>     2.3318     0.3548    23.1853 </r>
       <r>     2.3928     0.5887    23.2212 </r>
       <r>     2.4538     0.7458    23.2667 </r>
       <r>     2.5147     0.7273    23.3110 </r>
       <r>     2.5757     0.6300    23.3494 </r>
       <r>     2.6366     0.5751    23.3845 </r>
       <r>     2.6976     0.8734    23.4377 </r>
       <r>     2.7586     0.9225    23.4939 </r>
       <r>     2.8195     0.6820    23.5355 </r>
       <r>     2.8805     0.8057    23.5846 </r>
       <r>     2.9414     0.7360    23.6295 </r>
       <r>     3.0024     0.7615    23.6759 </r>
       <r>     3.0634     1.0461    23.7397 </r>
       <r>     3.1243     1.2085    23.8133 </r>
       <r>     3.1853     1.2827    23.8915 </r>
       <r>     3.2462     1.0438    23.9552 </r>
       <r>     3.3072     0.5137    23.9865 </r>
       <r>     3.3682     0.3789    24.0096 </r>
       <r>     3.4291     0.8849    24.0635 </r>
       <r>     3.4901     1.4821    24.1539 </r>
       <r>     3.5510     0.7486    24.1995 </r>
       <r>     3.6120     0.3944    24.2235 </r>
       <r>     3.6730     0.6926    24.2658 </r>
       <r>     3.7339     1.1140    24.3337 </r>
       <r>     3.7949     1.0583    24.3982 </r>
       <r>     3.8558     0.5868    24.4340 </r>
       <r>     3.9168     0.4944    24.4641 </r>
       <r>     3.9778     0.3914    24.4880 </r>
       <r>     4.0387     0.3753    24.5108 </r>
       <r>     4.0997     0.7017    24.5536 </r>
       <r>     4.1606     0.4369    24.5802 </r>
       <r>     4.2216     0.4022    24.6048 </r>
       <r>     4.2825     0.6047    24.6416 </r>
       <r>     4.3435     0.4362    24.6682 </r>
       <r>     4.4045     0.3807    24.6914 </r>
       <r>     4.4654     0.8219    24.7415 </r>
       <r>     4.5264     1.1984    24.8146 </r>
       <r>     4.5873     1.0731    24.8800 </r>
       <r>     4.6483     0.4476    24.9073 </r>
       <r>     4.7093     0.2151    24.9204 </r>
       <r>     4.7702     0.4428    24.9474 </r>
       <r>     4.8312     0.3056    24.9660 </r>
       <r>     4.8921     0.2915    24.9838 </r>
       <r>     4.9531     0.8737    25.0371 </r>
       <r>     5.0141     0.5402    25.0700 </r>
       <r>     5.0750     0.3336    25.0903 </r>
       <r>     5.1360     0.8660    25.1431 </r>
       <r>     5.1969     0.7288    25.1875 </r>
       <r>     5.2579     0.2865    25.2050 </r>
       <r>     5.3189     0.5670    25.2396 </r>
       <r>     5.3798     1.0632    25.3044 </r>
       <r>     5.4408     1.2954    25.3833 </r>
       <r>     5.5017     0.9621    25.4420 </r>
       <r>     5.5627     1.2451    25.5179 </r>
       <r>     5.6237     1.5970    25.6153 </r>
       <r>     5.6846     1.2065    25.6888 </r>
       <r>     5.7456     1.3032    25.7682 </r>
       <r>     5.8065     0.9082    25.8236 </r>
       <r>     5.8675     1.1235    25.8921 </r>
       <r>     5.9285     1.1498    25.9622 </r>
       <r>     5.9894     1.4787    26.0523 </r>
       <r>     6.0504     1.8703    26.1663 </r>
       <r>     6.1113     0.9387    26.2236 </r>
       <r>     6.1723     0.6025    26.2603 </r>
       <r>     6.2333     1.5029    26.3519 </r>
       <r>     6.2942     1.4295    26.4390 </r>
       <r>     6.3552     0.8825    26.4928 </r>
       <r>     6.4161     0.8646    26.5456 </r>
       <r>     6.4771     1.0252    26.6080 </r>
       <r>     6.5380     0.6806    26.6495 </r>
       <r>     6.5990     0.7847    26.6974 </r>
       <r>     6.6600     1.3943    26.7824 </r>
       <r>     6.7209     1.4956    26.8735 </r>
       <r>     6.7819     1.0469    26.9374 </r>
       <r>     6.8428     0.9712    26.9966 </r>
       <r>     6.9038     1.0923    27.0631 </r>
       <r>     6.9648     1.1497    27.1332 </r>
       <r>     7.0257     1.1121    27.2010 </r>
       <r>     7.0867     0.8897    27.2553 </r>
       <r>     7.1476     0.8487    27.3070 </r>
       <r>     7.2086     0.9655    27.3659 </r>
       <r>     7.2696     1.5969    27.4632 </r>
       <r>     7.3305     1.4973    27.5545 </r>
       <r>     7.3915     0.8727    27.6077 </r>
       <r>     7.4524     0.4030    27.6322 </r>
       <r>     7.5134     0.9251    27.6886 </r>
       <r>     7.5744     1.1431    27.7583 </r>
       <r>     7.6353     0.6003    27.7949 </r>
       <r>     7.6963     0.8057    27.8440 </r>
       <r>     7.7572     0.7766    27.8914 </r>
       <r>     7.8182     0.4131    27.9166 </r>
       <r>     7.8792     0.2245    27.9302 </r>
       <r>     7.9401     0.2330    27.9444 </r>
       <r>     8.0011     0.1786    27.9553 </r>
       <r>     8.0620     0.2726    27.9719 </r>
       <r>     8.1230     0.3926    27.9959 </r>
       <r>     8.1840     0.0666    27.9999 </r>
       <r>     8.2449     0.0010    28.0000 </r>
       <r>     8.3059     0.0000    28.0000 </r>
       <r>     8.3668     0.0000    28.0000 </r>
       <r>     8.4278     0.0000    28.0000 </r>
       <r>     8.4888     0.0000    28.0000 </r>
       <r>     8.5497     0.0000    28.0000 </r>
       <r>     8.6107     0.0000    28.0000 </r>
       <r>     8.6716     0.0000    28.0000 </r>
       <r>     8.7326     0.0000    28.0000 </r>
       <r>     8.7935     0.0000    28.0000 </r>
       <r>     8.8545     0.0000    28.0000 </r>
       <r>     8.9155     0.0000    28.0000 </r>
      </set>
     </set>
    </array>
   </total>
  </dos>
 </calculation>
 <structure name="finalpos" >
  <crystal>
   <varray name="basis" >
    <v>       2.89786501       0.00000000       0.00000000 </v>
    <v>       0.00000000       2.89786501       0.00000000 </v>
    <v>       0.00000000       0.00000000      21.14730000 </v>
   </varray>
   <i name="volume">    177.58702368 </i>
   <varray name="rec_basis" >
    <v>       0.34508164       0.00000000       0.00000000 </v>
    <v>       0.00000000       0.34508164       0.00000000 </v>
    <v>       0.00000000       0.00000000       0.04728736 </v>
   </varray>
  </crystal>
  <varray name="positions" >
   <v>       0.44893251       0.44893251       0.50000000 </v>
   <v>      -0.04836156      -0.04836156       0.59810404 </v>
   <v>       0.45442285       0.45442284       0.69553721 </v>
   <v>      -0.04531340      -0.04531341       0.79376393 </v>
  </varray>
  <varray name="selective"  type="logical" >
   <v type="logical" >  F  F  F </v>
   <v type="logical" >  T  T  T </v>
   <v type="logical" >  T  T  T </v>
   <v type="logical" >  T  T  T </v>
  </varray>
  <nose>
   <v>      -3.00000000       0.00000000       0.00010000       0.00010000 </v>
  </nose>
 </structure>
</modeling>
