Slab Fe 1x1 4Layers                     
           1
     2.897865    0.000000    0.000000
     0.000000    2.897865    0.000000
     0.000000    0.000000   21.147300
   Au
   4
Direct configuration=     1
   0.44893251  0.44893251  0.50000000
   0.00000000  0.00000000  0.54910000
   0.44893251  0.44893251  0.59820000
   0.00000000  0.00000000  0.64730000
Direct configuration=     2
   0.44893251  0.44893251  0.50000000
  -0.11252530 -0.11252530  0.52589698
   0.56145851  0.56145851  0.62140257
  -0.05658936 -0.05658936  0.68691614
Direct configuration=     3
   0.44893251  0.44893251  0.50000000
  -0.05330125 -0.05330125  0.53810914
   0.50223409  0.50223409  0.60919065
  -0.02680538 -0.02680538  0.66606547
Direct configuration=     4
   0.44893251  0.44893251  0.50000000
  -0.06260475 -0.06260475  0.53619074
   0.51153764  0.51153764  0.61110902
  -0.03148414 -0.03148414  0.66934089
Direct configuration=     5
   0.44893251  0.44893251  0.50000000
  -0.03910403 -0.03910403  0.54189347
   0.48370467  0.48370467  0.61637341
  -0.01186065 -0.01186065  0.68646483
Direct configuration=     6
   0.44893251  0.44893251  0.50000000
  -0.01802912 -0.01802912  0.54700756
   0.45874469  0.45874469  0.62109439
   0.00573724  0.00573724  0.70182118
Direct configuration=     7
   0.44893251  0.44893251  0.50000000
   0.02412069  0.02412069  0.55723573
   0.40882474  0.40882474  0.63053636
   0.04093303  0.04093303  0.73253388
Direct configuration=     8
   0.44893251  0.44893251  0.50000000
   0.00067556  0.00067556  0.56325815
   0.40619788  0.40619788  0.63895459
   0.05359274  0.05359274  0.74513541
Direct configuration=     9
   0.44893251  0.44893251  0.50000000
  -0.03395385 -0.03395385  0.57215351
   0.40231789  0.40231789  0.65138867
   0.07229165  0.07229165  0.76374838
Direct configuration=    10
   0.44893251  0.44893251  0.50000000
  -0.10321268 -0.10321268  0.58994423
   0.39455792  0.39455792  0.67625681
   0.10968946  0.10968946  0.80097432
Direct configuration=    11
   0.44893251  0.44893251  0.50000000
  -0.11283863 -0.11283863  0.59241687
   0.39347940  0.39347940  0.67971312
   0.11488720  0.11488720  0.80614817
Direct configuration=    12
   0.44893251  0.44893251  0.50000000
  -0.12657130 -0.12657130  0.59594443
   0.39194075  0.39194075  0.68464399
   0.12230246  0.12230246  0.81352935
Direct configuration=    13
   0.44893251  0.44893251  0.50000000
  -0.12976964 -0.12976964  0.59676599
   0.39158239  0.39158239  0.68579238
   0.12402947  0.12402947  0.81524842
Direct configuration=    14
   0.44893251  0.44893251  0.50000000
  -0.12671817 -0.12671817  0.59637984
   0.39026673  0.39026673  0.68751720
   0.12432832  0.12432832  0.81478634
Direct configuration=    15
   0.44893251  0.44893251  0.50000000
  -0.11756377 -0.11756377  0.59522139
   0.38631973  0.38631973  0.69269164
   0.12522487  0.12522487  0.81340008
Direct configuration=    16
   0.44893251  0.44893251  0.50000000
  -0.11494569 -0.11494569  0.59489008
   0.38519093  0.38519093  0.69417149
   0.12548127  0.12548127  0.81300362
Direct configuration=    17
   0.44893251  0.44893251  0.50000000
  -0.11044246 -0.11044246  0.59598046
   0.38618311  0.38618311  0.69475868
   0.12423393  0.12423393  0.81258192
Direct configuration=    18
   0.44893251  0.44893251  0.50000000
  -0.09781035 -0.09781035  0.59903912
   0.38896629  0.38896629  0.69640583
   0.12073497  0.12073497  0.81139900
Direct configuration=    19
   0.44893251  0.44893251  0.50000000
  -0.09614675 -0.09614675  0.59944193
   0.38933282  0.38933282  0.69662276
   0.12027417  0.12027417  0.81124321
Direct configuration=    20
   0.44893251  0.44893251  0.50000000
  -0.09328608 -0.09328608  0.59984568
   0.39527570  0.39527570  0.69652974
   0.11540574  0.11540574  0.81152171
Direct configuration=    21
   0.44893251  0.44893251  0.50000000
  -0.08531645 -0.08531645  0.60097048
   0.41183213  0.41183213  0.69627060
   0.10184263  0.10184263  0.81229759
Direct configuration=    22
   0.44893251  0.44893251  0.50000000
  -0.08323695 -0.08323695  0.60082147
   0.41670089  0.41670089  0.69676722
   0.09794626  0.09794626  0.81215656
Direct configuration=    23
   0.44893251  0.44893251  0.50000000
  -0.07699847 -0.07699847  0.60037444
   0.43130717  0.43130717  0.69825710
   0.08625714  0.08625714  0.81173346
Direct configuration=    24
   0.44893251  0.44893251  0.50000000
  -0.06452150 -0.06452150  0.59948037
   0.46051973  0.46051973  0.70123684
   0.06287889  0.06287889  0.81088727
Direct configuration=    25
   0.44893251  0.44893251  0.50000000
  -0.03956757 -0.03956757  0.59769222
   0.51894485  0.51894485  0.70719633
   0.01612240  0.01612240  0.80919488
Direct configuration=    26
   0.44893251  0.44893251  0.50000000
  -0.05654314 -0.05654314  0.59890865
   0.47919963  0.47919963  0.70314223
   0.04792973  0.04792973  0.81034617
Direct configuration=    27
   0.44893251  0.44893251  0.50000000
  -0.04958218 -0.04958218  0.60017234
   0.49421392  0.49421392  0.70426779
   0.03576377  0.03576377  0.80832732
Direct configuration=    28
   0.44893251  0.44893251  0.50000000
  -0.04001386 -0.04001386  0.60190937
   0.51485209  0.51485209  0.70581495
   0.01904082  0.01904082  0.80555227
Direct configuration=    29
   0.44893251  0.44893251  0.50000000
  -0.03878902 -0.03878902  0.60259228
   0.51258869  0.51258869  0.70433154
   0.01985071  0.01985071  0.80500032
Direct configuration=    30
   0.44893251  0.44893251  0.50000000
  -0.03806525 -0.03806525  0.60299581
   0.51125124  0.51125124  0.70345498
   0.02032928  0.02032928  0.80467417
Direct configuration=    31
   0.44893251  0.44893251  0.50000000
  -0.03512680 -0.03512680  0.60280461
   0.50764981  0.50764981  0.70276695
   0.02090236  0.02090236  0.80351171
Direct configuration=    32
   0.44893251  0.44893251  0.50000000
  -0.02677401 -0.02677401  0.60226112
   0.49741247  0.49741247  0.70081117
   0.02253138  0.02253138  0.80020734
Direct configuration=    33
   0.44893251  0.44893251  0.50000000
  -0.01006844 -0.01006843  0.60117414
   0.47693778  0.47693779  0.69689960
   0.02578944  0.02578943  0.79359859
Direct configuration=    34
   0.44893251  0.44893251  0.50000000
  -0.02425136 -0.02425135  0.60209698
   0.49432065  0.49432065  0.70022049
   0.02302337  0.02302337  0.79920937
Direct configuration=    35
   0.44893251  0.44893251  0.50000000
  -0.02331871 -0.02331871  0.60074854
   0.49481422  0.49481422  0.69973010
   0.02021132  0.02021131  0.79857773
Direct configuration=    36
   0.44893251  0.44893251  0.50000000
  -0.02276506 -0.02276506  0.59994805
   0.49510722  0.49510723  0.69943899
   0.01854197  0.01854197  0.79820276
Direct configuration=    37
   0.44893251  0.44893251  0.50000000
  -0.02352278 -0.02352277  0.59947667
   0.49680171  0.49680171  0.69832611
   0.01485952  0.01485952  0.79767844
Direct configuration=    38
   0.44893251  0.44893251  0.50000000
  -0.02405194 -0.02405194  0.59914747
   0.49798509  0.49798509  0.69754890
   0.01228781  0.01228780  0.79731227
Direct configuration=    39
   0.44893251  0.44893251  0.50000000
  -0.02418378 -0.02418377  0.59906546
   0.49827991  0.49827991  0.69735527
   0.01164710  0.01164709  0.79722104
Direct configuration=    40
   0.44893251  0.44893251  0.50000000
  -0.02540289 -0.02540288  0.59888872
   0.49868846  0.49868847  0.69693942
   0.00819461  0.00819461  0.79610307
Direct configuration=    41
   0.44893251  0.44893251  0.50000000
  -0.02653538 -0.02653538  0.59872455
   0.49906799  0.49906799  0.69655311
   0.00498742  0.00498742  0.79506452
Direct configuration=    42
   0.44893251  0.44893251  0.50000000
  -0.02700679 -0.02700679  0.59865621
   0.49922597  0.49922597  0.69639231
   0.00365239  0.00365239  0.79463222
Direct configuration=    43
   0.44893251  0.44893251  0.50000000
  -0.02679666 -0.02679665  0.59852580
   0.49618600  0.49618600  0.69633016
   0.00280527  0.00280527  0.79430802
Direct configuration=    44
   0.44893251  0.44893251  0.50000000
  -0.02647999 -0.02647998  0.59832927
   0.49160482  0.49160482  0.69623649
   0.00152867  0.00152867  0.79381945
Direct configuration=    45
   0.44893251  0.44893251  0.50000000
  -0.02666727 -0.02666727  0.59834712
   0.49013814  0.49013814  0.69608204
   0.00094746  0.00094746  0.79374569
Direct configuration=    46
   0.44893251  0.44893251  0.50000000
  -0.02722914 -0.02722914  0.59840070
   0.48573812  0.48573812  0.69561869
  -0.00079615 -0.00079616  0.79352440
Direct configuration=    47
   0.44893251  0.44893251  0.50000000
  -0.02785812 -0.02785812  0.59837410
   0.48567398  0.48567398  0.69557678
  -0.00144703 -0.00144704  0.79357056
Direct configuration=    48
   0.44893251  0.44893251  0.50000000
  -0.02974506 -0.02974505  0.59829431
   0.48548155  0.48548155  0.69545108
  -0.00339966 -0.00339967  0.79370903
Direct configuration=    49
   0.44893251  0.44893251  0.50000000
  -0.03351893 -0.03351893  0.59813474
   0.48509670  0.48509670  0.69519966
  -0.00730493 -0.00730493  0.79398598
Direct configuration=    50
   0.44893251  0.44893251  0.50000000
  -0.03212225 -0.03212225  0.59819380
   0.48523913  0.48523913  0.69529271
  -0.00585962 -0.00585963  0.79388349
Direct configuration=    51
   0.44893251  0.44893251  0.50000000
  -0.03280096 -0.03280095  0.59812795
   0.48495277  0.48495277  0.69535786
  -0.00663171 -0.00663171  0.79387988
Direct configuration=    52
   0.44893251  0.44893251  0.50000000
  -0.03483706 -0.03483706  0.59793039
   0.48409370  0.48409370  0.69555333
  -0.00894796 -0.00894796  0.79386905
Direct configuration=    53
   0.44893251  0.44893251  0.50000000
  -0.03534751 -0.03534751  0.59788086
   0.48387833  0.48387833  0.69560234
  -0.00952863 -0.00952864  0.79386634
Direct configuration=    54
   0.44893251  0.44893251  0.50000000
  -0.03581967 -0.03581967  0.59794367
   0.48314039  0.48314039  0.69563982
  -0.01028816 -0.01028817  0.79384048
Direct configuration=    55
   0.44893251  0.44893251  0.50000000
  -0.03723617 -0.03723617  0.59813209
   0.48092658  0.48092657  0.69575225
  -0.01256676 -0.01256676  0.79376292
Direct configuration=    56
   0.44893251  0.44893251  0.50000000
  -0.04006915 -0.04006915  0.59850893
   0.47649894  0.47649894  0.69597712
  -0.01712395 -0.01712395  0.79360779
Direct configuration=    57
   0.44893251  0.44893251  0.50000000
  -0.04047237 -0.04047237  0.59852810
   0.47506411  0.47506411  0.69593802
  -0.01832663 -0.01832664  0.79366772
Direct configuration=    58
   0.44893251  0.44893251  0.50000000
  -0.04168204 -0.04168204  0.59858558
   0.47075962  0.47075962  0.69582070
  -0.02193469 -0.02193470  0.79384749
Direct configuration=    59
   0.44893251  0.44893251  0.50000000
  -0.04410136 -0.04410137  0.59870055
   0.46215065  0.46215064  0.69558606
  -0.02915080 -0.02915081  0.79420703
Direct configuration=    60
   0.44893251  0.44893251  0.50000000
  -0.04335409 -0.04335409  0.59866504
   0.46480976  0.46480975  0.69565853
  -0.02692192 -0.02692192  0.79409598
Direct configuration=    61
   0.44893251  0.44893251  0.50000000
  -0.04381206 -0.04381206  0.59857394
   0.46310913  0.46310912  0.69569924
  -0.02851396 -0.02851397  0.79413452
Direct configuration=    62
   0.44893251  0.44893251  0.50000000
  -0.04518598 -0.04518598  0.59830062
   0.45800725  0.45800725  0.69582137
  -0.03329011 -0.03329011  0.79425016
Direct configuration=    63
   0.44893251  0.44893251  0.50000000
  -0.04531064 -0.04531064  0.59827582
   0.45754434  0.45754433  0.69583245
  -0.03372346 -0.03372347  0.79426065
Direct configuration=    64
   0.44893251  0.44893251  0.50000000
  -0.04563933 -0.04563933  0.59826765
   0.45740524  0.45740523  0.69584893
  -0.03454843 -0.03454843  0.79421540
Direct configuration=    65
   0.44893251  0.44893251  0.50000000
  -0.04662540 -0.04662540  0.59824314
   0.45698793  0.45698792  0.69589837
  -0.03702331 -0.03702332  0.79407967
Direct configuration=    66
   0.44893251  0.44893251  0.50000000
  -0.04859755 -0.04859755  0.59819411
   0.45615331  0.45615330  0.69599724
  -0.04197308 -0.04197309  0.79380820
Direct configuration=    67
   0.44893251  0.44893251  0.50000000
  -0.04773447 -0.04773448  0.59821557
   0.45651857  0.45651856  0.69595397
  -0.03980690 -0.03980691  0.79392700
Direct configuration=    68
   0.44893251  0.44893251  0.50000000
  -0.04817957 -0.04817957  0.59827404
   0.45635785  0.45635784  0.69585112
  -0.04103754 -0.04103754  0.79389875
Direct configuration=    69
   0.44893251  0.44893251  0.50000000
  -0.04869072 -0.04869072  0.59834118
   0.45617328  0.45617327  0.69573301
  -0.04245079 -0.04245080  0.79386630
Direct configuration=    70
   0.44893251  0.44893251  0.50000000
  -0.04865211 -0.04865211  0.59830571
   0.45593298  0.45593298  0.69569087
  -0.04291127 -0.04291128  0.79386134
Direct configuration=    71
   0.44893251  0.44893251  0.50000000
  -0.04853628 -0.04853629  0.59819930
   0.45521210  0.45521209  0.69556446
  -0.04429271 -0.04429272  0.79384647
Direct configuration=    72
   0.44893251  0.44893251  0.50000000
  -0.04849638 -0.04849638  0.59816264
   0.45496372  0.45496371  0.69552091
  -0.04476869 -0.04476870  0.79384135
Direct configuration=    73
   0.44893251  0.44893251  0.50000000
  -0.04836156 -0.04836156  0.59810404
   0.45442285  0.45442284  0.69553721
  -0.04531340 -0.04531341  0.79376393
