   4   4   0   0
  0.5744079E+02  0.4098200E-09  0.2897865E-09  0.1934680E-08  0.2500000E-15
  1.000000000000000E-004
  CAR 
 Slab Fe 1x1 4Layers                     
      7.32356944     -6.73229406  301     -1.22614525      1.00000000
     -6.732  0.0000E+00  0.0000E+00  0.0000E+00  0.0000E+00
     -6.685  0.0000E+00  0.0000E+00  0.0000E+00  0.0000E+00
     -6.639  0.0000E+00  0.0000E+00  0.0000E+00  0.0000E+00
     -6.592  0.0000E+00  0.0000E+00  0.0000E+00  0.0000E+00
     -6.545  0.0000E+00  0.0000E+00  0.0000E+00  0.0000E+00
     -6.498  0.0000E+00  0.0000E+00  0.0000E+00  0.0000E+00
     -6.451  0.0000E+00  0.0000E+00  0.0000E+00  0.0000E+00
     -6.404  0.0000E+00  0.0000E+00  0.0000E+00  0.0000E+00
     -6.357  0.8829E-18  0.8829E-18  0.4136E-19  0.4136E-19
     -6.311  0.1011E-13  0.1011E-13  0.4737E-15  0.4737E-15
     -6.264  0.2142E-10  0.2142E-10  0.1004E-11  0.1004E-11
     -6.217  0.8625E-08  0.8625E-08  0.4051E-09  0.4051E-09
     -6.170  0.6920E-06  0.6920E-06  0.3283E-07  0.3283E-07
     -6.123  0.1208E-04  0.1208E-04  0.5990E-06  0.5990E-06
     -6.076  0.5630E-04  0.5630E-04  0.3237E-05  0.3237E-05
     -6.030  0.1208E-03  0.1208E-03  0.8898E-05  0.8898E-05
     -5.983  0.1919E-03  0.1919E-03  0.1789E-04  0.1789E-04
     -5.936  0.1979E-03  0.1979E-03  0.2716E-04  0.2716E-04
     -5.889  0.1891E-03  0.1891E-03  0.3602E-04  0.3602E-04
     -5.842  0.2140E-03  0.2140E-03  0.4605E-04  0.4605E-04
     -5.795  0.2726E-03  0.2726E-03  0.5882E-04  0.5882E-04
     -5.748  0.2853E-03  0.2853E-03  0.7219E-04  0.7219E-04
     -5.702  0.1720E-03  0.1720E-03  0.8025E-04  0.8025E-04
     -5.655  0.1184E-03  0.1184E-03  0.8579E-04  0.8579E-04
     -5.608  0.1319E-03  0.1319E-03  0.9197E-04  0.9197E-04
     -5.561  0.1733E-03  0.1733E-03  0.1001E-03  0.1001E-03
     -5.514  0.1910E-03  0.1910E-03  0.1090E-03  0.1090E-03
     -5.467  0.1802E-03  0.1802E-03  0.1175E-03  0.1175E-03
     -5.420  0.1524E-03  0.1524E-03  0.1246E-03  0.1246E-03
     -5.374  0.1767E-03  0.1767E-03  0.1329E-03  0.1329E-03
     -5.327  0.3978E-03  0.3978E-03  0.1515E-03  0.1515E-03
     -5.280  0.9440E-03  0.9440E-03  0.1958E-03  0.1958E-03
     -5.233  0.1449E-02  0.1449E-02  0.2636E-03  0.2636E-03
     -5.186  0.1692E-02  0.1692E-02  0.3429E-03  0.3429E-03
     -5.139  0.1849E-02  0.1849E-02  0.4295E-03  0.4295E-03
     -5.092  0.1820E-02  0.1820E-02  0.5148E-03  0.5148E-03
     -5.046  0.1193E-02  0.1193E-02  0.5707E-03  0.5707E-03
     -4.999  0.6950E-03  0.6950E-03  0.6032E-03  0.6032E-03
     -4.952  0.7573E-03  0.7573E-03  0.6387E-03  0.6387E-03
     -4.905  0.1203E-02  0.1203E-02  0.6951E-03  0.6951E-03
     -4.858  0.9828E-03  0.9828E-03  0.7411E-03  0.7411E-03
     -4.811  0.5664E-03  0.5664E-03  0.7676E-03  0.7676E-03
     -4.764  0.2334E-03  0.2334E-03  0.7786E-03  0.7786E-03
     -4.718  0.2267E-03  0.2267E-03  0.7892E-03  0.7892E-03
     -4.671  0.6164E-03  0.6164E-03  0.8181E-03  0.8181E-03
     -4.624  0.6613E-03  0.6613E-03  0.8491E-03  0.8491E-03
     -4.577  0.6642E-03  0.6642E-03  0.8802E-03  0.8802E-03
     -4.530  0.7461E-03  0.7461E-03  0.9151E-03  0.9151E-03
     -4.483  0.5166E-03  0.5166E-03  0.9393E-03  0.9393E-03
     -4.437  0.1639E-03  0.1639E-03  0.9470E-03  0.9470E-03
     -4.390  0.1151E-03  0.1151E-03  0.9524E-03  0.9524E-03
     -4.343  0.4073E-03  0.4073E-03  0.9715E-03  0.9715E-03
     -4.296  0.7352E-03  0.7352E-03  0.1006E-02  0.1006E-02
     -4.249  0.8790E-03  0.8790E-03  0.1047E-02  0.1047E-02
     -4.202  0.1038E-02  0.1038E-02  0.1096E-02  0.1096E-02
     -4.155  0.1308E-02  0.1308E-02  0.1157E-02  0.1157E-02
     -4.109  0.1591E-02  0.1591E-02  0.1232E-02  0.1232E-02
     -4.062  0.1558E-02  0.1558E-02  0.1305E-02  0.1305E-02
     -4.015  0.1419E-02  0.1419E-02  0.1371E-02  0.1371E-02
     -3.968  0.1752E-02  0.1752E-02  0.1453E-02  0.1453E-02
     -3.921  0.1666E-02  0.1666E-02  0.1531E-02  0.1531E-02
     -3.874  0.1495E-02  0.1495E-02  0.1601E-02  0.1601E-02
     -3.827  0.1635E-02  0.1635E-02  0.1678E-02  0.1678E-02
     -3.781  0.1561E-02  0.1561E-02  0.1751E-02  0.1751E-02
     -3.734  0.1323E-02  0.1323E-02  0.1813E-02  0.1813E-02
     -3.687  0.1015E-02  0.1015E-02  0.1861E-02  0.1861E-02
     -3.640  0.1033E-02  0.1033E-02  0.1909E-02  0.1909E-02
     -3.593  0.1786E-02  0.1786E-02  0.1993E-02  0.1993E-02
     -3.546  0.2005E-02  0.2005E-02  0.2087E-02  0.2087E-02
     -3.499  0.1409E-02  0.1409E-02  0.2153E-02  0.2153E-02
     -3.453  0.1487E-02  0.1487E-02  0.2222E-02  0.2222E-02
     -3.406  0.1652E-02  0.1652E-02  0.2300E-02  0.2300E-02
     -3.359  0.1622E-02  0.1622E-02  0.2376E-02  0.2376E-02
     -3.312  0.1329E-02  0.1329E-02  0.2438E-02  0.2438E-02
     -3.265  0.1142E-02  0.1142E-02  0.2491E-02  0.2491E-02
     -3.218  0.1313E-02  0.1313E-02  0.2553E-02  0.2553E-02
     -3.171  0.1328E-02  0.1328E-02  0.2615E-02  0.2615E-02
     -3.125  0.9539E-03  0.9539E-03  0.2660E-02  0.2660E-02
     -3.078  0.1034E-02  0.1034E-02  0.2708E-02  0.2708E-02
     -3.031  0.1617E-02  0.1617E-02  0.2784E-02  0.2784E-02
     -2.984  0.1771E-02  0.1771E-02  0.2867E-02  0.2867E-02
     -2.937  0.1612E-02  0.1612E-02  0.2943E-02  0.2943E-02
     -2.890  0.1753E-02  0.1753E-02  0.3025E-02  0.3025E-02
     -2.844  0.2415E-02  0.2415E-02  0.3138E-02  0.3138E-02
     -2.797  0.2635E-02  0.2635E-02  0.3261E-02  0.3261E-02
     -2.750  0.2803E-02  0.2803E-02  0.3393E-02  0.3393E-02
     -2.703  0.3634E-02  0.3634E-02  0.3563E-02  0.3563E-02
     -2.656  0.3657E-02  0.3657E-02  0.3734E-02  0.3734E-02
     -2.609  0.2623E-02  0.2623E-02  0.3857E-02  0.3857E-02
     -2.562  0.1673E-02  0.1673E-02  0.3935E-02  0.3935E-02
     -2.516  0.1356E-02  0.1356E-02  0.3999E-02  0.3999E-02
     -2.469  0.8826E-03  0.8826E-03  0.4040E-02  0.4040E-02
     -2.422  0.4156E-03  0.4156E-03  0.4060E-02  0.4060E-02
     -2.375  0.5510E-03  0.5510E-03  0.4086E-02  0.4086E-02
     -2.328  0.6712E-03  0.6712E-03  0.4117E-02  0.4117E-02
     -2.281  0.6948E-03  0.6948E-03  0.4150E-02  0.4150E-02
     -2.234  0.4192E-03  0.4192E-03  0.4169E-02  0.4169E-02
     -2.188  0.1226E-03  0.1226E-03  0.4175E-02  0.4175E-02
     -2.141  0.2611E-04  0.2611E-04  0.4176E-02  0.4176E-02
     -2.094  0.4125E-04  0.4125E-04  0.4178E-02  0.4178E-02
     -2.047  0.2129E-03  0.2129E-03  0.4188E-02  0.4188E-02
     -2.000  0.4442E-03  0.4442E-03  0.4209E-02  0.4209E-02
     -1.953  0.3162E-03  0.3162E-03  0.4224E-02  0.4224E-02
     -1.906  0.3508E-03  0.3508E-03  0.4240E-02  0.4240E-02
     -1.860  0.5698E-03  0.5698E-03  0.4267E-02  0.4267E-02
     -1.813  0.4180E-03  0.4180E-03  0.4286E-02  0.4286E-02
     -1.766  0.2205E-03  0.2205E-03  0.4297E-02  0.4297E-02
     -1.719  0.1688E-03  0.1688E-03  0.4305E-02  0.4305E-02
     -1.672  0.1947E-03  0.1947E-03  0.4314E-02  0.4314E-02
     -1.625  0.1797E-03  0.1797E-03  0.4322E-02  0.4322E-02
     -1.578  0.1951E-03  0.1951E-03  0.4331E-02  0.4331E-02
     -1.532  0.1933E-03  0.1933E-03  0.4340E-02  0.4340E-02
     -1.485  0.1741E-03  0.1741E-03  0.4349E-02  0.4349E-02
     -1.438  0.2005E-03  0.2005E-03  0.4358E-02  0.4358E-02
     -1.391  0.2201E-03  0.2201E-03  0.4368E-02  0.4368E-02
     -1.344  0.1848E-03  0.1848E-03  0.4377E-02  0.4377E-02
     -1.297  0.1734E-03  0.1734E-03  0.4385E-02  0.4385E-02
     -1.251  0.2100E-03  0.2100E-03  0.4395E-02  0.4395E-02
     -1.204  0.2101E-03  0.2101E-03  0.4405E-02  0.4405E-02
     -1.157  0.2406E-03  0.2406E-03  0.4416E-02  0.4416E-02
     -1.110  0.2400E-03  0.2400E-03  0.4427E-02  0.4427E-02
     -1.063  0.2282E-03  0.2282E-03  0.4438E-02  0.4438E-02
     -1.016  0.2166E-03  0.2166E-03  0.4448E-02  0.4448E-02
     -0.969  0.1943E-03  0.1943E-03  0.4457E-02  0.4457E-02
     -0.923  0.1998E-03  0.1998E-03  0.4467E-02  0.4467E-02
     -0.876  0.2174E-03  0.2174E-03  0.4477E-02  0.4477E-02
     -0.829  0.2473E-03  0.2473E-03  0.4488E-02  0.4488E-02
     -0.782  0.2474E-03  0.2474E-03  0.4500E-02  0.4500E-02
     -0.735  0.2047E-03  0.2047E-03  0.4510E-02  0.4510E-02
     -0.688  0.1829E-03  0.1829E-03  0.4518E-02  0.4518E-02
     -0.641  0.1552E-03  0.1552E-03  0.4525E-02  0.4525E-02
     -0.595  0.1486E-03  0.1486E-03  0.4532E-02  0.4532E-02
     -0.548  0.1250E-03  0.1250E-03  0.4538E-02  0.4538E-02
     -0.501  0.1297E-03  0.1297E-03  0.4544E-02  0.4544E-02
     -0.454  0.1763E-03  0.1763E-03  0.4553E-02  0.4553E-02
     -0.407  0.1850E-03  0.1850E-03  0.4561E-02  0.4561E-02
     -0.360  0.1791E-03  0.1791E-03  0.4570E-02  0.4570E-02
     -0.313  0.1385E-03  0.1385E-03  0.4576E-02  0.4576E-02
     -0.267  0.9273E-04  0.9273E-04  0.4580E-02  0.4580E-02
     -0.220  0.1122E-03  0.1122E-03  0.4586E-02  0.4586E-02
     -0.173  0.1067E-03  0.1067E-03  0.4591E-02  0.4591E-02
     -0.126  0.9018E-04  0.9018E-04  0.4595E-02  0.4595E-02
     -0.079  0.1361E-03  0.1361E-03  0.4601E-02  0.4601E-02
     -0.032  0.1463E-03  0.1463E-03  0.4608E-02  0.4608E-02
      0.015  0.1014E-03  0.1014E-03  0.4613E-02  0.4613E-02
      0.061  0.5148E-04  0.5148E-04  0.4615E-02  0.4615E-02
      0.108  0.4228E-04  0.4228E-04  0.4617E-02  0.4617E-02
      0.155  0.4991E-04  0.4991E-04  0.4620E-02  0.4620E-02
      0.202  0.8230E-04  0.8230E-04  0.4624E-02  0.4624E-02
      0.249  0.1139E-03  0.1139E-03  0.4629E-02  0.4629E-02
      0.296  0.9882E-04  0.9882E-04  0.4633E-02  0.4633E-02
      0.342  0.1052E-03  0.1052E-03  0.4638E-02  0.4638E-02
      0.389  0.1767E-03  0.1767E-03  0.4647E-02  0.4647E-02
      0.436  0.2075E-03  0.2075E-03  0.4656E-02  0.4656E-02
      0.483  0.1880E-03  0.1880E-03  0.4665E-02  0.4665E-02
      0.530  0.1404E-03  0.1404E-03  0.4672E-02  0.4672E-02
      0.577  0.8632E-04  0.8632E-04  0.4676E-02  0.4676E-02
      0.624  0.1049E-03  0.1049E-03  0.4681E-02  0.4681E-02
      0.670  0.9165E-04  0.9165E-04  0.4685E-02  0.4685E-02
      0.717  0.1100E-03  0.1100E-03  0.4690E-02  0.4690E-02
      0.764  0.1558E-03  0.1558E-03  0.4698E-02  0.4698E-02
      0.811  0.9115E-04  0.9115E-04  0.4702E-02  0.4702E-02
      0.858  0.5314E-04  0.5314E-04  0.4704E-02  0.4704E-02
      0.905  0.7617E-04  0.7617E-04  0.4708E-02  0.4708E-02
      0.952  0.8622E-04  0.8622E-04  0.4712E-02  0.4712E-02
      0.998  0.1152E-03  0.1152E-03  0.4717E-02  0.4717E-02
      1.045  0.1500E-03  0.1500E-03  0.4724E-02  0.4724E-02
      1.092  0.2017E-03  0.2017E-03  0.4734E-02  0.4734E-02
      1.139  0.3014E-03  0.3014E-03  0.4748E-02  0.4748E-02
      1.186  0.2729E-03  0.2729E-03  0.4761E-02  0.4761E-02
      1.233  0.1713E-03  0.1713E-03  0.4769E-02  0.4769E-02
      1.280  0.9444E-04  0.9444E-04  0.4773E-02  0.4773E-02
      1.326  0.1069E-03  0.1069E-03  0.4778E-02  0.4778E-02
      1.373  0.1737E-03  0.1737E-03  0.4786E-02  0.4786E-02
      1.420  0.1445E-03  0.1445E-03  0.4793E-02  0.4793E-02
      1.467  0.9861E-04  0.9861E-04  0.4798E-02  0.4798E-02
      1.514  0.1069E-03  0.1069E-03  0.4803E-02  0.4803E-02
      1.561  0.1323E-03  0.1323E-03  0.4809E-02  0.4809E-02
      1.608  0.1653E-03  0.1653E-03  0.4817E-02  0.4817E-02
      1.654  0.2201E-03  0.2201E-03  0.4827E-02  0.4827E-02
      1.701  0.2614E-03  0.2614E-03  0.4839E-02  0.4839E-02
      1.748  0.2381E-03  0.2381E-03  0.4850E-02  0.4850E-02
      1.795  0.2069E-03  0.2069E-03  0.4860E-02  0.4860E-02
      1.842  0.2340E-03  0.2340E-03  0.4871E-02  0.4871E-02
      1.889  0.2108E-03  0.2108E-03  0.4881E-02  0.4881E-02
      1.935  0.2051E-03  0.2051E-03  0.4890E-02  0.4890E-02
      1.982  0.1682E-03  0.1682E-03  0.4898E-02  0.4898E-02
      2.029  0.1591E-03  0.1591E-03  0.4906E-02  0.4906E-02
      2.076  0.1971E-03  0.1971E-03  0.4915E-02  0.4915E-02
      2.123  0.1610E-03  0.1610E-03  0.4923E-02  0.4923E-02
      2.170  0.2385E-03  0.2385E-03  0.4934E-02  0.4934E-02
      2.217  0.3241E-03  0.3241E-03  0.4949E-02  0.4949E-02
      2.263  0.3008E-03  0.3008E-03  0.4963E-02  0.4963E-02
      2.310  0.2820E-03  0.2820E-03  0.4976E-02  0.4976E-02
      2.357  0.2766E-03  0.2766E-03  0.4989E-02  0.4989E-02
      2.404  0.2702E-03  0.2702E-03  0.5002E-02  0.5002E-02
      2.451  0.2095E-03  0.2095E-03  0.5012E-02  0.5012E-02
      2.498  0.1770E-03  0.1770E-03  0.5020E-02  0.5020E-02
      2.545  0.1844E-03  0.1844E-03  0.5029E-02  0.5029E-02
      2.591  0.1994E-03  0.1994E-03  0.5038E-02  0.5038E-02
      2.638  0.2085E-03  0.2085E-03  0.5048E-02  0.5048E-02
      2.685  0.2345E-03  0.2345E-03  0.5059E-02  0.5059E-02
      2.732  0.2900E-03  0.2900E-03  0.5072E-02  0.5072E-02
      2.779  0.2620E-03  0.2620E-03  0.5085E-02  0.5085E-02
      2.826  0.1359E-03  0.1359E-03  0.5091E-02  0.5091E-02
      2.873  0.7772E-04  0.7772E-04  0.5095E-02  0.5095E-02
      2.919  0.1589E-03  0.1589E-03  0.5102E-02  0.5102E-02
      2.966  0.2198E-03  0.2198E-03  0.5112E-02  0.5112E-02
      3.013  0.2489E-03  0.2489E-03  0.5124E-02  0.5124E-02
      3.060  0.3074E-03  0.3074E-03  0.5138E-02  0.5138E-02
      3.107  0.2321E-03  0.2321E-03  0.5149E-02  0.5149E-02
      3.154  0.1700E-03  0.1700E-03  0.5157E-02  0.5157E-02
      3.201  0.1776E-03  0.1776E-03  0.5166E-02  0.5166E-02
      3.247  0.1933E-03  0.1933E-03  0.5175E-02  0.5175E-02
      3.294  0.2611E-03  0.2611E-03  0.5187E-02  0.5187E-02
      3.341  0.2137E-03  0.2137E-03  0.5197E-02  0.5197E-02
      3.388  0.1614E-03  0.1614E-03  0.5204E-02  0.5204E-02
      3.435  0.1394E-03  0.1394E-03  0.5211E-02  0.5211E-02
      3.482  0.1496E-03  0.1496E-03  0.5218E-02  0.5218E-02
      3.528  0.1851E-03  0.1851E-03  0.5227E-02  0.5227E-02
      3.575  0.1718E-03  0.1718E-03  0.5235E-02  0.5235E-02
      3.622  0.2001E-03  0.2001E-03  0.5244E-02  0.5244E-02
      3.669  0.2534E-03  0.2534E-03  0.5256E-02  0.5256E-02
      3.716  0.2730E-03  0.2730E-03  0.5269E-02  0.5269E-02
      3.763  0.2790E-03  0.2790E-03  0.5282E-02  0.5282E-02
      3.810  0.2751E-03  0.2751E-03  0.5295E-02  0.5295E-02
      3.856  0.2748E-03  0.2748E-03  0.5308E-02  0.5308E-02
      3.903  0.2496E-03  0.2496E-03  0.5319E-02  0.5319E-02
      3.950  0.2388E-03  0.2388E-03  0.5330E-02  0.5330E-02
      3.997  0.2429E-03  0.2429E-03  0.5342E-02  0.5342E-02
      4.044  0.2194E-03  0.2194E-03  0.5352E-02  0.5352E-02
      4.091  0.1953E-03  0.1953E-03  0.5361E-02  0.5361E-02
      4.138  0.1774E-03  0.1774E-03  0.5370E-02  0.5370E-02
      4.184  0.2195E-03  0.2195E-03  0.5380E-02  0.5380E-02
      4.231  0.2365E-03  0.2365E-03  0.5391E-02  0.5391E-02
      4.278  0.1954E-03  0.1954E-03  0.5400E-02  0.5400E-02
      4.325  0.1780E-03  0.1780E-03  0.5408E-02  0.5408E-02
      4.372  0.1737E-03  0.1737E-03  0.5417E-02  0.5417E-02
      4.419  0.1559E-03  0.1559E-03  0.5424E-02  0.5424E-02
      4.466  0.1560E-03  0.1560E-03  0.5431E-02  0.5431E-02
      4.512  0.1834E-03  0.1834E-03  0.5440E-02  0.5440E-02
      4.559  0.1929E-03  0.1929E-03  0.5449E-02  0.5449E-02
      4.606  0.2412E-03  0.2412E-03  0.5460E-02  0.5460E-02
      4.653  0.2457E-03  0.2457E-03  0.5472E-02  0.5472E-02
      4.700  0.1500E-03  0.1500E-03  0.5479E-02  0.5479E-02
      4.747  0.1109E-03  0.1109E-03  0.5484E-02  0.5484E-02
      4.794  0.1803E-03  0.1803E-03  0.5492E-02  0.5492E-02
      4.840  0.2165E-03  0.2165E-03  0.5502E-02  0.5502E-02
      4.887  0.1929E-03  0.1929E-03  0.5511E-02  0.5511E-02
      4.934  0.1753E-03  0.1753E-03  0.5520E-02  0.5520E-02
      4.981  0.1966E-03  0.1966E-03  0.5529E-02  0.5529E-02
      5.028  0.1628E-03  0.1628E-03  0.5537E-02  0.5537E-02
      5.075  0.1583E-03  0.1583E-03  0.5544E-02  0.5544E-02
      5.121  0.1081E-03  0.1081E-03  0.5549E-02  0.5549E-02
      5.168  0.8865E-04  0.8865E-04  0.5553E-02  0.5553E-02
      5.215  0.1454E-03  0.1454E-03  0.5560E-02  0.5560E-02
      5.262  0.8860E-04  0.8860E-04  0.5564E-02  0.5564E-02
      5.309  0.4224E-04  0.4224E-04  0.5566E-02  0.5566E-02
      5.356  0.7452E-04  0.7452E-04  0.5570E-02  0.5570E-02
      5.403  0.6997E-04  0.6997E-04  0.5573E-02  0.5573E-02
      5.449  0.4254E-04  0.4254E-04  0.5575E-02  0.5575E-02
      5.496  0.4944E-04  0.4944E-04  0.5577E-02  0.5577E-02
      5.543  0.4974E-04  0.4974E-04  0.5579E-02  0.5579E-02
      5.590  0.2585E-04  0.2585E-04  0.5581E-02  0.5581E-02
      5.637  0.2376E-04  0.2376E-04  0.5582E-02  0.5582E-02
      5.684  0.8883E-05  0.8883E-05  0.5582E-02  0.5582E-02
      5.731  0.8222E-06  0.8222E-06  0.5582E-02  0.5582E-02
      5.777  0.2180E-05  0.2180E-05  0.5582E-02  0.5582E-02
      5.824  0.1111E-04  0.1111E-04  0.5583E-02  0.5583E-02
      5.871  0.2652E-04  0.2652E-04  0.5584E-02  0.5584E-02
      5.918  0.5276E-04  0.5276E-04  0.5587E-02  0.5587E-02
      5.965  0.4787E-04  0.4787E-04  0.5589E-02  0.5589E-02
      6.012  0.3646E-04  0.3646E-04  0.5591E-02  0.5591E-02
      6.059  0.4248E-04  0.4248E-04  0.5593E-02  0.5593E-02
      6.105  0.4252E-04  0.4252E-04  0.5595E-02  0.5595E-02
      6.152  0.2014E-04  0.2014E-04  0.5595E-02  0.5595E-02
      6.199  0.9450E-05  0.9450E-05  0.5596E-02  0.5596E-02
      6.246  0.1146E-04  0.1146E-04  0.5596E-02  0.5596E-02
      6.293  0.4090E-05  0.4090E-05  0.5597E-02  0.5597E-02
      6.340  0.3100E-06  0.3100E-06  0.5597E-02  0.5597E-02
      6.387  0.4676E-08  0.4676E-08  0.5597E-02  0.5597E-02
      6.433  0.1421E-10  0.1421E-10  0.5597E-02  0.5597E-02
      6.480  0.6754E-09  0.6754E-09  0.5597E-02  0.5597E-02
      6.527  0.9986E-07  0.9986E-07  0.5597E-02  0.5597E-02
      6.574  0.2877E-05  0.2877E-05  0.5597E-02  0.5597E-02
      6.621  0.1760E-04  0.1760E-04  0.5598E-02  0.5598E-02
      6.668  0.2792E-04  0.2792E-04  0.5599E-02  0.5599E-02
      6.714  0.1739E-04  0.1739E-04  0.5600E-02  0.5600E-02
      6.761  0.4704E-05  0.4704E-05  0.5600E-02  0.5600E-02
      6.808  0.3544E-06  0.3544E-06  0.5600E-02  0.5600E-02
      6.855  0.5624E-08  0.5624E-08  0.5600E-02  0.5600E-02
      6.902  0.1706E-10  0.1706E-10  0.5600E-02  0.5600E-02
      6.949  0.9508E-14  0.9508E-14  0.5600E-02  0.5600E-02
      6.996  0.9531E-18  0.9531E-18  0.5600E-02  0.5600E-02
      7.042  0.0000E+00  0.0000E+00  0.5600E-02  0.5600E-02
      7.089  0.0000E+00  0.0000E+00  0.5600E-02  0.5600E-02
      7.136  0.0000E+00  0.0000E+00  0.5600E-02  0.5600E-02
      7.183  0.0000E+00  0.0000E+00  0.5600E-02  0.5600E-02
      7.230  0.0000E+00  0.0000E+00  0.5600E-02  0.5600E-02
      7.277  0.0000E+00  0.0000E+00  0.5600E-02  0.5600E-02
      7.324  0.0000E+00  0.0000E+00  0.5600E-02  0.5600E-02
