    4    4 5000    2
  0.5744079E+02  0.4098200E-09  0.2897865E-09  0.1934680E-08  0.2500000E-15
  1.000000000000000E-004
  CAR 
 Slab Fe 1x1 4Layers                     
     44    181     28
 
  0.0000000E+00  0.0000000E+00  0.0000000E+00  0.2770083E-02
    1       -6.093391     -6.093391   1.000000   1.000000
    2       -6.088188     -6.088188   1.000000   1.000000
    3       -5.298289     -5.298289   1.000000   1.000000
    4       -5.292438     -5.292438   1.000000   1.000000
    5       -5.289794     -5.289794   1.000000   1.000000
    6       -5.287763     -5.287763   1.000000   1.000000
    7       -4.121295     -4.121295   1.000000   1.000000
    8       -4.116562     -4.116562   1.000000   1.000000
    9       -3.939828     -3.939828   1.000000   1.000000
   10       -3.936569     -3.936569   1.000000   1.000000
   11       -3.384137     -3.384137   1.000000   1.000000
   12       -3.381895     -3.381895   1.000000   1.000000
   13       -3.372517     -3.372517   1.000000   1.000000
   14       -3.367833     -3.367833   1.000000   1.000000
   15       -2.805056     -2.805056   1.000000   1.000000
   16       -2.803693     -2.803693   1.000000   1.000000
   17       -2.655045     -2.655045   1.000000   1.000000
   18       -2.652257     -2.652257   1.000000   1.000000
   19       -2.498224     -2.498224   1.000000   1.000000
   20       -2.496024     -2.496024   1.000000   1.000000
   21       -2.333724     -2.333724   1.000000   1.000000
   22       -2.332328     -2.332328   1.000000   1.000000
   23       -1.871576     -1.871576   1.000000   1.000000
   24       -1.777438     -1.777438   1.000000   1.000000
   25        1.032496      1.032496   0.000000   0.000000
   26        1.510868      1.510868   0.000000   0.000000
   27        3.698761      3.698761   0.000000   0.000000
   28        5.106361      5.106361   0.000000   0.000000
 
  0.5263158E-01  0.0000000E+00  0.0000000E+00  0.5540166E-02
    1       -6.085983     -6.085983   1.000000   1.000000
    2       -6.080815     -6.080815   1.000000   1.000000
    3       -5.297574     -5.297574   1.000000   1.000000
    4       -5.291680     -5.291680   1.000000   1.000000
    5       -5.287858     -5.287858   1.000000   1.000000
    6       -5.285797     -5.285797   1.000000   1.000000
    7       -4.131517     -4.131517   1.000000   1.000000
    8       -4.126807     -4.126807   1.000000   1.000000
    9       -3.915936     -3.915936   1.000000   1.000000
   10       -3.912618     -3.912618   1.000000   1.000000
   11       -3.372345     -3.372345   1.000000   1.000000
   12       -3.367937     -3.367937   1.000000   1.000000
   13       -3.367661     -3.367661   1.000000   1.000000
   14       -3.365725     -3.365725   1.000000   1.000000
   15       -2.808613     -2.808613   1.000000   1.000000
   16       -2.807158     -2.807158   1.000000   1.000000
   17       -2.656566     -2.656566   1.000000   1.000000
   18       -2.653777     -2.653777   1.000000   1.000000
   19       -2.499477     -2.499477   1.000000   1.000000
   20       -2.497277     -2.497277   1.000000   1.000000
   21       -2.333624     -2.333624   1.000000   1.000000
   22       -2.332228     -2.332228   1.000000   1.000000
   23       -1.859292     -1.859292   1.000000   1.000000
   24       -1.765847     -1.765847   1.000000   1.000000
   25        1.056963      1.056963   0.000000   0.000000
   26        1.534729      1.534729   0.000000   0.000000
   27        3.719601      3.719601   0.000000   0.000000
   28        4.867878      4.867878   0.000000   0.000000
 
  0.1052632E+00  0.0000000E+00  0.0000000E+00  0.5540166E-02
    1       -6.064785     -6.064785   1.000000   1.000000
    2       -6.059720     -6.059720   1.000000   1.000000
    3       -5.295494     -5.295494   1.000000   1.000000
    4       -5.289560     -5.289560   1.000000   1.000000
    5       -5.282263     -5.282263   1.000000   1.000000
    6       -5.280195     -5.280195   1.000000   1.000000
    7       -4.156678     -4.156678   1.000000   1.000000
    8       -4.151985     -4.151985   1.000000   1.000000
    9       -3.848683     -3.848683   1.000000   1.000000
   10       -3.845248     -3.845248   1.000000   1.000000
   11       -3.371852     -3.371852   1.000000   1.000000
   12       -3.367168     -3.367168   1.000000   1.000000
   13       -3.320851     -3.320851   1.000000   1.000000
   14       -3.318714     -3.318714   1.000000   1.000000
   15       -2.818489     -2.818489   1.000000   1.000000
   16       -2.816717     -2.816717   1.000000   1.000000
   17       -2.660958     -2.660958   1.000000   1.000000
   18       -2.658169     -2.658169   1.000000   1.000000
   19       -2.503094     -2.503094   1.000000   1.000000
   20       -2.500895     -2.500895   1.000000   1.000000
   21       -2.333337     -2.333337   1.000000   1.000000
   22       -2.331942     -2.331942   1.000000   1.000000
   23       -1.822396     -1.822396   1.000000   1.000000
   24       -1.730918     -1.730918   1.000000   1.000000
   25        1.128879      1.128879   0.000000   0.000000
   26        1.604509      1.604509   0.000000   0.000000
   27        3.781491      3.781491   0.000000   0.000000
   28        4.319620      4.319620   0.000000   0.000000
 
  0.1578947E+00  0.0000000E+00  0.0000000E+00  0.5540166E-02
    1       -6.032692     -6.032692   1.000000   1.000000
    2       -6.027785     -6.027785   1.000000   1.000000
    3       -5.292233     -5.292233   1.000000   1.000000
    4       -5.286279     -5.286279   1.000000   1.000000
    5       -5.273812     -5.273812   1.000000   1.000000
    6       -5.271773     -5.271773   1.000000   1.000000
    7       -4.189867     -4.189867   1.000000   1.000000
    8       -4.185165     -4.185165   1.000000   1.000000
    9       -3.742213     -3.742213   1.000000   1.000000
   10       -3.738636     -3.738636   1.000000   1.000000
   11       -3.371089     -3.371089   1.000000   1.000000
   12       -3.366405     -3.366405   1.000000   1.000000
   13       -3.247720     -3.247720   1.000000   1.000000
   14       -3.245665     -3.245665   1.000000   1.000000
   15       -2.832299     -2.832299   1.000000   1.000000
   16       -2.830040     -2.830040   1.000000   1.000000
   17       -2.667735     -2.667735   1.000000   1.000000
   18       -2.664946     -2.664946   1.000000   1.000000
   19       -2.508673     -2.508673   1.000000   1.000000
   20       -2.506476     -2.506476   1.000000   1.000000
   21       -2.332897     -2.332897   1.000000   1.000000
   22       -2.331502     -2.331502   1.000000   1.000000
   23       -1.760559     -1.760559   1.000000   1.000000
   24       -1.672053     -1.672053   1.000000   1.000000
   25        1.243509      1.243509   0.000000   0.000000
   26        1.714386      1.714386   0.000000   0.000000
   27        3.644079      3.644079   0.000000   0.000000
   28        3.668766      3.668766   0.000000   0.000000
 
  0.2105263E+00  0.0000000E+00  0.0000000E+00  0.5540166E-02
    1       -5.993945     -5.993945   1.000000   1.000000
    2       -5.989230     -5.989230   1.000000   1.000000
    3       -5.288076     -5.288076   1.000000   1.000000
    4       -5.282109     -5.282109   1.000000   1.000000
    5       -5.263680     -5.263680   1.000000   1.000000
    6       -5.261682     -5.261682   1.000000   1.000000
    7       -4.227140     -4.227140   1.000000   1.000000
    8       -4.222418     -4.222418   1.000000   1.000000
    9       -3.597372     -3.597372   1.000000   1.000000
   10       -3.593643     -3.593643   1.000000   1.000000
   11       -3.370138     -3.370138   1.000000   1.000000
   12       -3.365454     -3.365454   1.000000   1.000000
   13       -3.157712     -3.157712   1.000000   1.000000
   14       -3.155674     -3.155674   1.000000   1.000000
   15       -2.845901     -2.845901   1.000000   1.000000
   16       -2.843195     -2.843195   1.000000   1.000000
   17       -2.676148     -2.676148   1.000000   1.000000
   18       -2.673357     -2.673357   1.000000   1.000000
   19       -2.515597     -2.515597   1.000000   1.000000
   20       -2.513401     -2.513401   1.000000   1.000000
   21       -2.332356     -2.332356   1.000000   1.000000
   22       -2.330961     -2.330961   1.000000   1.000000
   23       -1.672914     -1.672914   1.000000   1.000000
   24       -1.588109     -1.588109   1.000000   1.000000
   25        1.391077      1.391077   0.000000   0.000000
   26        1.851239      1.851239   0.000000   0.000000
   27        2.946645      2.946645   0.000000   0.000000
   28        2.972109      2.972109   0.000000   0.000000
 
  0.2631579E+00  0.0000000E+00  0.0000000E+00  0.5540166E-02
    1       -5.953348     -5.953348   1.000000   1.000000
    2       -5.948833     -5.948833   1.000000   1.000000
    3       -5.283408     -5.283408   1.000000   1.000000
    4       -5.277428     -5.277428   1.000000   1.000000
    5       -5.253120     -5.253120   1.000000   1.000000
    6       -5.251161     -5.251161   1.000000   1.000000
    7       -4.265201     -4.265201   1.000000   1.000000
    8       -4.260456     -4.260456   1.000000   1.000000
    9       -3.416276     -3.416276   1.000000   1.000000
   10       -3.412419     -3.412419   1.000000   1.000000
   11       -3.369102     -3.369102   1.000000   1.000000
   12       -3.364418     -3.364418   1.000000   1.000000
   13       -3.066598     -3.066598   1.000000   1.000000
   14       -3.064371     -3.064371   1.000000   1.000000
   15       -2.851697     -2.851697   1.000000   1.000000
   16       -2.848819     -2.848819   1.000000   1.000000
   17       -2.685275     -2.685275   1.000000   1.000000
   18       -2.682483     -2.682483   1.000000   1.000000
   19       -2.523106     -2.523106   1.000000   1.000000
   20       -2.520913     -2.520913   1.000000   1.000000
   21       -2.331773     -2.331773   1.000000   1.000000
   22       -2.330378     -2.330378   1.000000   1.000000
   23       -1.558759     -1.558759   1.000000   1.000000
   24       -1.478180     -1.478180   1.000000   1.000000
   25        1.543178      1.543178   0.000000   0.000000
   26        1.949224      1.949224   0.000000   0.000000
   27        2.295472      2.295472   0.000000   0.000000
   28        2.359990      2.359990   0.000000   0.000000
 
  0.3157895E+00  0.0000000E+00  0.0000000E+00  0.5540166E-02
    1       -5.915472     -5.915472   1.000000   1.000000
    2       -5.911141     -5.911141   1.000000   1.000000
    3       -5.278708     -5.278708   1.000000   1.000000
    4       -5.272714     -5.272714   1.000000   1.000000
    5       -5.243286     -5.243286   1.000000   1.000000
    6       -5.241356     -5.241356   1.000000   1.000000
    7       -4.300718     -4.300718   1.000000   1.000000
    8       -4.295954     -4.295954   1.000000   1.000000
    9       -3.368091     -3.368091   1.000000   1.000000
   10       -3.363407     -3.363407   1.000000   1.000000
   11       -3.206263     -3.206263   1.000000   1.000000
   12       -3.202367     -3.202367   1.000000   1.000000
   13       -3.000284     -3.000284   1.000000   1.000000
   14       -2.997397     -2.997397   1.000000   1.000000
   15       -2.834398     -2.834398   1.000000   1.000000
   16       -2.831771     -2.831771   1.000000   1.000000
   17       -2.694124     -2.694124   1.000000   1.000000
   18       -2.691331     -2.691331   1.000000   1.000000
   19       -2.530386     -2.530386   1.000000   1.000000
   20       -2.528195     -2.528195   1.000000   1.000000
   21       -2.331212     -2.331212   1.000000   1.000000
   22       -2.329816     -2.329816   1.000000   1.000000
   23       -1.420390     -1.420390   1.000000   1.000000
   24       -1.344402     -1.344402   0.999588   0.999588
   25        1.469570      1.469570   0.000000   0.000000
   26        1.572628      1.572628   0.000000   0.000000
   27        1.939564      1.939564   0.000000   0.000000
   28        2.285589      2.285589   0.000000   0.000000
 
  0.3684211E+00  0.0000000E+00  0.0000000E+00  0.5540166E-02
    1       -5.884066     -5.884066   1.000000   1.000000
    2       -5.879882     -5.879882   1.000000   1.000000
    3       -5.274510     -5.274510   1.000000   1.000000
    4       -5.268503     -5.268503   1.000000   1.000000
    5       -5.235113     -5.235113   1.000000   1.000000
    6       -5.233204     -5.233204   1.000000   1.000000
    7       -4.330543     -4.330543   1.000000   1.000000
    8       -4.325765     -4.325765   1.000000   1.000000
    9       -3.367218     -3.367218   1.000000   1.000000
   10       -3.362534     -3.362534   1.000000   1.000000
   11       -2.984579     -2.984579   1.000000   1.000000
   12       -2.980853     -2.980853   1.000000   1.000000
   13       -2.975317     -2.975317   1.000000   1.000000
   14       -2.971694     -2.971694   1.000000   1.000000
   15       -2.788083     -2.788083   1.000000   1.000000
   16       -2.785553     -2.785553   1.000000   1.000000
   17       -2.701745     -2.701745   1.000000   1.000000
   18       -2.698951     -2.698951   1.000000   1.000000
   19       -2.536657     -2.536657   1.000000   1.000000
   20       -2.534467     -2.534467   1.000000   1.000000
   21       -2.330731     -2.330731   1.000000   1.000000
   22       -2.329336     -2.329336   1.000000   1.000000
   23       -1.268641     -1.268641   0.885312   0.885312
   24       -1.197327     -1.197327   0.207504   0.207504
   25        1.007042      1.007042   0.000000   0.000000
   26        1.049478      1.049478   0.000000   0.000000
   27        2.052857      2.052857   0.000000   0.000000
   28        2.432897      2.432897   0.000000   0.000000
 
  0.4210526E+00  0.0000000E+00  0.0000000E+00  0.5540166E-02
    1       -5.861794     -5.861794   1.000000   1.000000
    2       -5.857712     -5.857712   1.000000   1.000000
    3       -5.271338     -5.271338   1.000000   1.000000
    4       -5.265321     -5.265321   1.000000   1.000000
    5       -5.229292     -5.229292   1.000000   1.000000
    6       -5.227396     -5.227396   1.000000   1.000000
    7       -4.352025     -4.352025   1.000000   1.000000
    8       -4.347240     -4.347240   1.000000   1.000000
    9       -3.366575     -3.366575   1.000000   1.000000
   10       -3.361891     -3.361891   1.000000   1.000000
   11       -2.971971     -2.971971   1.000000   1.000000
   12       -2.968093     -2.968093   1.000000   1.000000
   13       -2.784695     -2.784695   1.000000   1.000000
   14       -2.781180     -2.781180   1.000000   1.000000
   15       -2.740517     -2.740517   1.000000   1.000000
   16       -2.737735     -2.737735   1.000000   1.000000
   17       -2.707322     -2.707322   1.000000   1.000000
   18       -2.704527     -2.704527   1.000000   1.000000
   19       -2.541247     -2.541247   1.000000   1.000000
   20       -2.539058     -2.539058   1.000000   1.000000
   21       -2.330381     -2.330381   1.000000   1.000000
   22       -2.328985     -2.328985   1.000000   1.000000
   23       -1.129126     -1.129126   0.003034   0.003034
   24       -1.061978     -1.061978   0.000002   0.000002
   25        0.601861      0.601861   0.000000   0.000000
   26        0.635576      0.635576   0.000000   0.000000
   27        2.202472      2.202472   0.000000   0.000000
   28        2.562226      2.562226   0.000000   0.000000
 
  0.4736842E+00  0.0000000E+00  0.0000000E+00  0.5540166E-02
    1       -5.850285     -5.850285   1.000000   1.000000
    2       -5.846254     -5.846254   1.000000   1.000000
    3       -5.269627     -5.269627   1.000000   1.000000
    4       -5.263604     -5.263604   1.000000   1.000000
    5       -5.226271     -5.226271   1.000000   1.000000
    6       -5.224380     -5.224380   1.000000   1.000000
    7       -4.363263     -4.363263   1.000000   1.000000
    8       -4.358475     -4.358475   1.000000   1.000000
    9       -3.366236     -3.366236   1.000000   1.000000
   10       -3.361552     -3.361552   1.000000   1.000000
   11       -2.972912     -2.972912   1.000000   1.000000
   12       -2.968945     -2.968945   1.000000   1.000000
   13       -2.713317     -2.713317   1.000000   1.000000
   14       -2.710280     -2.710280   1.000000   1.000000
   15       -2.710269     -2.710269   1.000000   1.000000
   16       -2.707474     -2.707474   1.000000   1.000000
   17       -2.659615     -2.659615   1.000000   1.000000
   18       -2.656351     -2.656351   1.000000   1.000000
   19       -2.543668     -2.543668   1.000000   1.000000
   20       -2.541480     -2.541480   1.000000   1.000000
   21       -2.330198     -2.330198   1.000000   1.000000
   22       -2.328802     -2.328802   1.000000   1.000000
   23       -1.041813     -1.041813   0.000000   0.000000
   24       -0.977289     -0.977289   0.000000   0.000000
   25        0.369906      0.369906   0.000000   0.000000
   26        0.401592      0.401592   0.000000   0.000000
   27        2.294415      2.294415   0.000000   0.000000
   28        2.413881      2.413881   0.000000   0.000000
 
  0.0000000E+00  0.5263158E-01  0.0000000E+00  0.5540166E-02
    1       -6.017186     -6.017186   1.000000   1.000000
    2       -6.011826     -6.011826   1.000000   1.000000
    3       -5.279808     -5.279808   1.000000   1.000000
    4       -5.274018     -5.274018   1.000000   1.000000
    5       -5.209946     -5.209946   1.000000   1.000000
    6       -5.207810     -5.207810   1.000000   1.000000
    7       -4.114071     -4.114071   1.000000   1.000000
    8       -4.109338     -4.109338   1.000000   1.000000
    9       -3.924764     -3.924764   1.000000   1.000000
   10       -3.921523     -3.921523   1.000000   1.000000
   11       -3.432937     -3.432937   1.000000   1.000000
   12       -3.428241     -3.428241   1.000000   1.000000
   13       -3.371991     -3.371991   1.000000   1.000000
   14       -3.369788     -3.369788   1.000000   1.000000
   15       -2.802413     -2.802413   1.000000   1.000000
   16       -2.801038     -2.801038   1.000000   1.000000
   17       -2.705552     -2.705552   1.000000   1.000000
   18       -2.702760     -2.702760   1.000000   1.000000
   19       -2.539157     -2.539157   1.000000   1.000000
   20       -2.536982     -2.536982   1.000000   1.000000
   21       -2.398630     -2.398630   1.000000   1.000000
   22       -2.394091     -2.394091   1.000000   1.000000
   23       -1.810806     -1.810806   1.000000   1.000000
   24       -1.722139     -1.722139   1.000000   1.000000
   25        1.115955      1.115955   0.000000   0.000000
   26        1.600963      1.600963   0.000000   0.000000
   27        3.742911      3.742911   0.000000   0.000000
   28        5.198693      5.198693   0.000000   0.000000
 
  0.5263158E-01  0.5263158E-01  0.0000000E+00  0.5540166E-02
    1       -6.009723     -6.009723   1.000000   1.000000
    2       -6.004399     -6.004399   1.000000   1.000000
    3       -5.279197     -5.279197   1.000000   1.000000
    4       -5.273405     -5.273405   1.000000   1.000000
    5       -5.208010     -5.208010   1.000000   1.000000
    6       -5.205886     -5.205886   1.000000   1.000000
    7       -4.124103     -4.124103   1.000000   1.000000
    8       -4.119392     -4.119392   1.000000   1.000000
    9       -3.901167     -3.901167   1.000000   1.000000
   10       -3.897872     -3.897872   1.000000   1.000000
   11       -3.432608     -3.432608   1.000000   1.000000
   12       -3.427912     -3.427912   1.000000   1.000000
   13       -3.356010     -3.356010   1.000000   1.000000
   14       -3.353835     -3.353835   1.000000   1.000000
   15       -2.805941     -2.805941   1.000000   1.000000
   16       -2.804477     -2.804477   1.000000   1.000000
   17       -2.707174     -2.707174   1.000000   1.000000
   18       -2.704382     -2.704382   1.000000   1.000000
   19       -2.540521     -2.540521   1.000000   1.000000
   20       -2.538347     -2.538347   1.000000   1.000000
   21       -2.397839     -2.397839   1.000000   1.000000
   22       -2.393490     -2.393490   1.000000   1.000000
   23       -1.799018     -1.799018   1.000000   1.000000
   24       -1.710838     -1.710838   1.000000   1.000000
   25        1.140381      1.140381   0.000000   0.000000
   26        1.624808      1.624808   0.000000   0.000000
   27        3.763766      3.763766   0.000000   0.000000
   28        4.957489      4.957489   0.000000   0.000000
 
  0.1052632E+00  0.5263158E-01  0.0000000E+00  0.5540166E-02
    1       -5.988370     -5.988370   1.000000   1.000000
    2       -5.983150     -5.983150   1.000000   1.000000
    3       -5.277416     -5.277416   1.000000   1.000000
    4       -5.271619     -5.271619   1.000000   1.000000
    5       -5.202501     -5.202501   1.000000   1.000000
    6       -5.200408     -5.200408   1.000000   1.000000
    7       -4.148988     -4.148988   1.000000   1.000000
    8       -4.144293     -4.144293   1.000000   1.000000
    9       -3.834576     -3.834576   1.000000   1.000000
   10       -3.831175     -3.831175   1.000000   1.000000
   11       -3.431614     -3.431614   1.000000   1.000000
   12       -3.426920     -3.426920   1.000000   1.000000
   13       -3.309596     -3.309596   1.000000   1.000000
   14       -3.307490     -3.307490   1.000000   1.000000
   15       -2.815714     -2.815714   1.000000   1.000000
   16       -2.813936     -2.813936   1.000000   1.000000
   17       -2.711853     -2.711853   1.000000   1.000000
   18       -2.709059     -2.709059   1.000000   1.000000
   19       -2.544464     -2.544464   1.000000   1.000000
   20       -2.542292     -2.542292   1.000000   1.000000
   21       -2.395672     -2.395672   1.000000   1.000000
   22       -2.391818     -2.391818   1.000000   1.000000
   23       -1.763445     -1.763445   1.000000   1.000000
   24       -1.676688     -1.676688   1.000000   1.000000
   25        1.212206      1.212206   0.000000   0.000000
   26        1.694571      1.694571   0.000000   0.000000
   27        3.825699      3.825699   0.000000   0.000000
   28        4.404864      4.404864   0.000000   0.000000
 
  0.1578947E+00  0.5263158E-01  0.0000000E+00  0.5540166E-02
    1       -5.956048     -5.956048   1.000000   1.000000
    2       -5.950988     -5.950988   1.000000   1.000000
    3       -5.274612     -5.274612   1.000000   1.000000
    4       -5.268806     -5.268806   1.000000   1.000000
    5       -5.194234     -5.194234   1.000000   1.000000
    6       -5.192185     -5.192185   1.000000   1.000000
    7       -4.181948     -4.181948   1.000000   1.000000
    8       -4.177245     -4.177245   1.000000   1.000000
    9       -3.729320     -3.729320   1.000000   1.000000
   10       -3.725804     -3.725804   1.000000   1.000000
   11       -3.429850     -3.429850   1.000000   1.000000
   12       -3.425159     -3.425159   1.000000   1.000000
   13       -3.237641     -3.237641   1.000000   1.000000
   14       -3.235606     -3.235606   1.000000   1.000000
   15       -2.829282     -2.829282   1.000000   1.000000
   16       -2.827025     -2.827025   1.000000   1.000000
   17       -2.719032     -2.719032   1.000000   1.000000
   18       -2.716238     -2.716238   1.000000   1.000000
   19       -2.550551     -2.550551   1.000000   1.000000
   20       -2.548382     -2.548382   1.000000   1.000000
   21       -2.392613     -2.392613   1.000000   1.000000
   22       -2.389386     -2.389386   1.000000   1.000000
   23       -1.703365     -1.703365   1.000000   1.000000
   24       -1.618864     -1.618864   1.000000   1.000000
   25        1.326797      1.326797   0.000000   0.000000
   26        1.804518      1.804518   0.000000   0.000000
   27        3.726234      3.726234   0.000000   0.000000
   28        3.751323      3.751323   0.000000   0.000000
 
  0.2105263E+00  0.5263158E-01  0.0000000E+00  0.5540166E-02
    1       -5.917028     -5.917028   1.000000   1.000000
    2       -5.912165     -5.912165   1.000000   1.000000
    3       -5.271034     -5.271034   1.000000   1.000000
    4       -5.265215     -5.265215   1.000000   1.000000
    5       -5.184344     -5.184344   1.000000   1.000000
    6       -5.182341     -5.182341   1.000000   1.000000
    7       -4.218984     -4.218984   1.000000   1.000000
    8       -4.214262     -4.214262   1.000000   1.000000
    9       -3.587682     -3.587682   1.000000   1.000000
   10       -3.584097     -3.584097   1.000000   1.000000
   11       -3.426282     -3.426282   1.000000   1.000000
   12       -3.421605     -3.421605   1.000000   1.000000
   13       -3.149389     -3.149389   1.000000   1.000000
   14       -3.147360     -3.147360   1.000000   1.000000
   15       -2.842395     -2.842395   1.000000   1.000000
   16       -2.839702     -2.839702   1.000000   1.000000
   17       -2.727846     -2.727846   1.000000   1.000000
   18       -2.725050     -2.725050   1.000000   1.000000
   19       -2.558130     -2.558130   1.000000   1.000000
   20       -2.555965     -2.555965   1.000000   1.000000
   21       -2.389165     -2.389165   1.000000   1.000000
   22       -2.386538     -2.386538   1.000000   1.000000
   23       -1.617564     -1.617564   1.000000   1.000000
   24       -1.536032     -1.536032   1.000000   1.000000
   25        1.474539      1.474539   0.000000   0.000000
   26        1.941652      1.941652   0.000000   0.000000
   27        3.027834      3.027834   0.000000   0.000000
   28        3.053517      3.053517   0.000000   0.000000
 
  0.2631579E+00  0.5263158E-01  0.0000000E+00  0.5540166E-02
    1       -5.876148     -5.876148   1.000000   1.000000
    2       -5.871491     -5.871491   1.000000   1.000000
    3       -5.267014     -5.267014   1.000000   1.000000
    4       -5.261179     -5.261179   1.000000   1.000000
    5       -5.174049     -5.174049   1.000000   1.000000
    6       -5.172085     -5.172085   1.000000   1.000000
    7       -4.256788     -4.256788   1.000000   1.000000
    8       -4.252044     -4.252044   1.000000   1.000000
    9       -3.446420     -3.446420   1.000000   1.000000
   10       -3.442276     -3.442276   1.000000   1.000000
   11       -3.386994     -3.386994   1.000000   1.000000
   12       -3.382624     -3.382624   1.000000   1.000000
   13       -3.060726     -3.060726   1.000000   1.000000
   14       -3.058498     -3.058498   1.000000   1.000000
   15       -2.847257     -2.847257   1.000000   1.000000
   16       -2.844403     -2.844403   1.000000   1.000000
   17       -2.737151     -2.737151   1.000000   1.000000
   18       -2.734353     -2.734353   1.000000   1.000000
   19       -2.566408     -2.566408   1.000000   1.000000
   20       -2.564248     -2.564248   1.000000   1.000000
   21       -2.385695     -2.385695   1.000000   1.000000
   22       -2.383550     -2.383550   1.000000   1.000000
   23       -1.505197     -1.505197   1.000000   1.000000
   24       -1.427243     -1.427243   1.000000   1.000000
   25        1.627282      1.627282   0.000000   0.000000
   26        2.039281      2.039281   0.000000   0.000000
   27        2.377097      2.377097   0.000000   0.000000
   28        2.442790      2.442790   0.000000   0.000000
 
  0.3157895E+00  0.5263158E-01  0.0000000E+00  0.5540166E-02
    1       -5.838007     -5.838007   1.000000   1.000000
    2       -5.833538     -5.833538   1.000000   1.000000
    3       -5.262962     -5.262962   1.000000   1.000000
    4       -5.257108     -5.257108   1.000000   1.000000
    5       -5.164460     -5.164460   1.000000   1.000000
    6       -5.162527     -5.162527   1.000000   1.000000
    7       -4.292052     -4.292052   1.000000   1.000000
    8       -4.287290     -4.287290   1.000000   1.000000
    9       -3.431163     -3.431163   1.000000   1.000000
   10       -3.426522     -3.426522   1.000000   1.000000
   11       -3.194518     -3.194518   1.000000   1.000000
   12       -3.190472     -3.190472   1.000000   1.000000
   13       -2.997156     -2.997156   1.000000   1.000000
   14       -2.994281     -2.994281   1.000000   1.000000
   15       -2.828787     -2.828787   1.000000   1.000000
   16       -2.826171     -2.826171   1.000000   1.000000
   17       -2.745420     -2.745420   1.000000   1.000000
   18       -2.742620     -2.742620   1.000000   1.000000
   19       -2.574551     -2.574551   1.000000   1.000000
   20       -2.572396     -2.572396   1.000000   1.000000
   21       -2.382430     -2.382430   1.000000   1.000000
   22       -2.380620     -2.380620   1.000000   1.000000
   23       -1.368643     -1.368643   0.999972   0.999972
   24       -1.294755     -1.294755   0.973845   0.973845
   25        1.554873      1.554873   0.000000   0.000000
   26        1.658522      1.658522   0.000000   0.000000
   27        2.022999      2.022999   0.000000   0.000000
   28        2.375423      2.375423   0.000000   0.000000
 
  0.3684211E+00  0.5263158E-01  0.0000000E+00  0.5540166E-02
    1       -5.806371     -5.806371   1.000000   1.000000
    2       -5.802056     -5.802056   1.000000   1.000000
    3       -5.259335     -5.259335   1.000000   1.000000
    4       -5.253463     -5.253463   1.000000   1.000000
    5       -5.156491     -5.156491   1.000000   1.000000
    6       -5.154578     -5.154578   1.000000   1.000000
    7       -4.321658     -4.321658   1.000000   1.000000
    8       -4.316884     -4.316884   1.000000   1.000000
    9       -3.428498     -3.428498   1.000000   1.000000
   10       -3.423836     -3.423836   1.000000   1.000000
   11       -2.981886     -2.981886   1.000000   1.000000
   12       -2.978127     -2.978127   1.000000   1.000000
   13       -2.973398     -2.973398   1.000000   1.000000
   14       -2.969823     -2.969823   1.000000   1.000000
   15       -2.782598     -2.782598   1.000000   1.000000
   16       -2.780050     -2.780050   1.000000   1.000000
   17       -2.749542     -2.749542   1.000000   1.000000
   18       -2.746735     -2.746735   1.000000   1.000000