       N       E                     dE             d eps       ncg     rms          rms(c)
DAV:   1     0.260856243531E+03    0.26086E+03   -0.17088E+04 20272   0.115E+03
DAV:   2     0.157281729365E+02   -0.24513E+03   -0.23104E+03 24688   0.234E+02
DAV:   3     0.762997638409E+00   -0.14965E+02   -0.14383E+02 23868   0.553E+01
DAV:   4     0.480037711616E+00   -0.28296E+00   -0.28166E+00 21660   0.755E+00
DAV:   5     0.473320088400E+00   -0.67176E-02   -0.67144E-02 22648   0.124E+00    0.318E+01
DAV:   6     0.473944293266E+01    0.42661E+01   -0.17374E+01 20352   0.159E+01    0.225E+01
DAV:   7     0.795444447153E+01    0.32150E+01   -0.26517E+00 20512   0.808E+00    0.852E+00
DAV:   8     0.589830624058E+01   -0.20561E+01   -0.11021E+00 21376   0.468E+00    0.223E+00
DAV:   9     0.424021021137E+01   -0.16581E+01   -0.11990E+00 20804   0.471E+00    0.125E+00
DAV:  10     0.325285877739E+01   -0.98735E+00   -0.57826E-01 21596   0.341E+00    0.890E-01
DAV:  11     0.269924236192E+01   -0.55362E+00   -0.18765E-01 20952   0.177E+00    0.725E-01
DAV:  12     0.151742305780E+01   -0.11818E+01   -0.81018E-01 20788   0.331E+00    0.486E-01
DAV:  13     0.121684333813E+01   -0.30058E+00   -0.13258E-01 21064   0.129E+00    0.349E-01
DAV:  14     0.113821719743E+01   -0.78626E-01   -0.20412E-02 20792   0.473E-01    0.300E-01
DAV:  15     0.103071912586E+01   -0.10750E+00   -0.51935E-02 20500   0.709E-01    0.236E-01
DAV:  16     0.961391041088E+00   -0.69328E-01   -0.44763E-02 20696   0.641E-01    0.118E-01
DAV:  17     0.947605211834E+00   -0.13786E-01   -0.56330E-03 20624   0.285E-01    0.105E-01
DAV:  18     0.934857152502E+00   -0.12748E-01   -0.42931E-03 20432   0.185E-01    0.650E-02
DAV:  19     0.930503310387E+00   -0.43538E-02   -0.17989E-03 21336   0.124E-01    0.424E-02
DAV:  20     0.927860866512E+00   -0.26424E-02   -0.13892E-03 20560   0.101E-01    0.248E-02
DAV:  21     0.927408471121E+00   -0.45240E-03   -0.17411E-04 20820   0.603E-02    0.135E-02
DAV:  22     0.927267139186E+00   -0.14133E-03   -0.84327E-05 21192   0.351E-02    0.611E-03
DAV:  23     0.927131004709E+00   -0.13613E-03   -0.51066E-05 20476   0.207E-02    0.533E-03
DAV:  24     0.926960901786E+00   -0.17010E-03   -0.59804E-05 21168   0.158E-02    0.234E-03
DAV:  25     0.926934108050E+00   -0.26794E-04   -0.70558E-06 17240   0.722E-03    0.203E-03
DAV:  26     0.926931486138E+00   -0.26219E-05   -0.28154E-06 15476   0.717E-03    0.119E-03
DAV:  27     0.926931228597E+00   -0.25754E-06   -0.12774E-06 15052   0.514E-03
   1 F= -.12535601E+00 E0= -.12435241E+00  d E =-.125356E+00  mag=     0.0001
       N       E                     dE             d eps       ncg     rms          rms(c)
DAV:   1     0.186031480220E+02    0.17676E+02   -0.64334E+03 22512   0.400E+02    0.410E+01
DAV:   2    -0.887017067071E+01   -0.27473E+02   -0.27713E+02 21720   0.828E+01    0.414E+01
DAV:   3    -0.828183416758E+01    0.58834E+00   -0.17748E+01 22492   0.141E+01    0.316E+01
DAV:   4    -0.837202997572E+01   -0.90196E-01   -0.54337E+00 21792   0.622E+00    0.291E+01
DAV:   5    -0.831132180914E+01    0.60708E-01   -0.12600E+00 21312   0.771E+00    0.144E+01
DAV:   6    -0.805208036821E+01    0.25924E+00   -0.65132E-01 21604   0.677E+00    0.266E+00
DAV:   7    -0.798655256820E+01    0.65528E-01   -0.12407E-01 21856   0.254E+00    0.109E+00
DAV:   8    -0.796574373498E+01    0.20809E-01   -0.20053E-02 22384   0.970E-01    0.860E-01
DAV:   9    -0.794908761102E+01    0.16656E-01   -0.31964E-02 21624   0.139E+00    0.321E-01
DAV:  10    -0.794735492242E+01    0.17327E-02   -0.64053E-03 22092   0.595E-01    0.146E-01
DAV:  11    -0.794721035085E+01    0.14457E-03   -0.83909E-04 22004   0.199E-01    0.453E-02
DAV:  12    -0.794721657945E+01   -0.62286E-05   -0.13890E-04 21788   0.876E-02    0.282E-02
DAV:  13    -0.794720888411E+01    0.76953E-05   -0.99807E-06 21492   0.333E-02    0.248E-02
DAV:  14    -0.794719868707E+01    0.10197E-04   -0.31501E-05 21924   0.401E-02    0.669E-03
DAV:  15    -0.794719835683E+01    0.33024E-06   -0.22371E-06 17648   0.123E-02
   2 F= -.89136164E+01 E0= -.89124165E+01  d E =-.878826E+01  mag=     0.0001
       N       E                     dE             d eps       ncg     rms          rms(c)
DAV:   1    -0.700350249657E+01    0.94370E+00   -0.93948E+02 20272   0.156E+02    0.679E+00
DAV:   2    -0.781791590055E+01   -0.81441E+00   -0.86086E+00 21160   0.190E+01    0.173E+00
DAV:   3    -0.783140740167E+01   -0.13492E-01   -0.10194E+00 21320   0.332E+00    0.201E+00
DAV:   4    -0.778510335182E+01    0.46304E-01   -0.26926E-01 21424   0.969E-01    0.117E+00
DAV:   5    -0.778213367736E+01    0.29697E-02   -0.21573E-02 21016   0.873E-01    0.236E-01
DAV:   6    -0.778126482646E+01    0.86885E-03   -0.30036E-03 21040   0.400E-01    0.766E-02
DAV:   7    -0.778117934454E+01    0.85482E-04   -0.47350E-04 21524   0.134E-01    0.349E-02
DAV:   8    -0.778117073197E+01    0.86126E-05   -0.51876E-05 21928   0.389E-02    0.163E-02
DAV:   9    -0.778116941455E+01    0.13174E-05   -0.89454E-06 21008   0.145E-02    0.531E-03
DAV:  10    -0.778116872159E+01    0.69296E-06   -0.28462E-06 15108   0.963E-03
   3 F= -.87896205E+01 E0= -.87878998E+01  d E =-.866426E+01  mag=     0.0000
       N       E                     dE             d eps       ncg     rms          rms(c)
DAV:   1    -0.758062891591E+01    0.20054E+00   -0.52192E+02 20272   0.114E+02    0.305E+00
DAV:   2    -0.800210189374E+01   -0.42147E+00   -0.46096E+00 21112   0.142E+01    0.241E+00
DAV:   3    -0.799406792071E+01    0.80340E-02   -0.13815E-01 21240   0.223E+00    0.170E+00
DAV:   4    -0.800461813652E+01   -0.10550E-01   -0.17626E-01 21216   0.132E+00    0.716E-01
DAV:   5    -0.798892357439E+01    0.15695E-01   -0.16404E-01 23968   0.761E-01    0.214E-01
DAV:   6    -0.798720980022E+01    0.17138E-02   -0.27022E-03 21144   0.296E-01    0.918E-02
DAV:   7    -0.798700850898E+01    0.20129E-03   -0.73291E-04 21280   0.154E-01    0.326E-02
DAV:   8    -0.798699901543E+01    0.94935E-05   -0.66695E-05 22048   0.703E-02    0.130E-02
DAV:   9    -0.798700040847E+01   -0.13930E-05   -0.81646E-06 21000   0.200E-02    0.472E-03
DAV:  10    -0.798700067802E+01   -0.26955E-06   -0.81309E-07 12720   0.575E-03
   4 F= -.89618442E+01 E0= -.89607101E+01  d E =-.883649E+01  mag=     0.0000
       N       E                     dE             d eps       ncg     rms          rms(c)
DAV:   1    -0.793238807378E+01    0.54612E-01   -0.58918E+01 20272   0.368E+01    0.113E+00
DAV:   2    -0.799199274440E+01   -0.59605E-01   -0.65630E-01 20472   0.515E+00    0.546E-01
DAV:   3    -0.799017283307E+01    0.18199E-02   -0.24325E-02 21176   0.915E-01    0.371E-01
DAV:   4    -0.799018922367E+01   -0.16391E-04   -0.54249E-03 21480   0.414E-01    0.108E-01
DAV:   5    -0.798987164997E+01    0.31757E-03   -0.20920E-03 21424   0.176E-01    0.654E-02
DAV:   6    -0.798969528475E+01    0.17637E-03   -0.48785E-04 21480   0.816E-02    0.191E-02
DAV:   7    -0.798968011569E+01    0.15169E-04   -0.59879E-05 21012   0.469E-02    0.584E-03
DAV:   8    -0.798967960345E+01    0.51224E-06   -0.59313E-06 21080   0.148E-02
   5 F= -.89748747E+01 E0= -.89736630E+01  d E =-.884952E+01  mag=     0.0000
       N       E                     dE             d eps       ncg     rms          rms(c)
DAV:   1    -0.798903916727E+01    0.64095E-03   -0.62243E+00 20272   0.119E+01    0.353E-01
DAV:   2    -0.799527129566E+01   -0.62321E-02   -0.68245E-02 20488   0.167E+00    0.201E-01
DAV:   3    -0.799507189583E+01    0.19940E-03   -0.25375E-03 21128   0.296E-01    0.135E-01
DAV:   4    -0.799508975773E+01   -0.17862E-04   -0.74205E-04 21416   0.147E-01    0.407E-02
DAV:   5    -0.799503403779E+01    0.55720E-04   -0.26495E-04 21344   0.617E-02    0.191E-02
DAV:   6    -0.799501691283E+01    0.17125E-04   -0.47529E-05 21512   0.303E-02    0.731E-03
DAV:   7    -0.799501508829E+01    0.18245E-05   -0.70191E-06 21016   0.163E-02    0.212E-03
DAV:   8    -0.799501502489E+01    0.63400E-07   -0.63860E-07 11740   0.466E-03
   6 F= -.89767535E+01 E0= -.89756180E+01  d E =-.885140E+01  mag=     0.0000
       N       E                     dE             d eps       ncg     rms          rms(c)
DAV:   1    -0.799440212457E+01    0.61296E-03   -0.18313E-01 20272   0.204E+00    0.609E-02
DAV:   2    -0.799458844518E+01   -0.18632E-03   -0.20343E-03 20800   0.288E-01    0.329E-02
DAV:   3    -0.799458317244E+01    0.52727E-05   -0.76819E-05 21032   0.511E-02    0.227E-02
DAV:   4    -0.799458450586E+01   -0.13334E-05   -0.22552E-05 21424   0.241E-02    0.760E-03
DAV:   5    -0.799458275206E+01    0.17538E-05   -0.81730E-06 16360   0.107E-02    0.325E-03
DAV:   6    -0.799458228460E+01    0.46746E-06   -0.13467E-06 11872   0.565E-03
   7 F= -.89768844E+01 E0= -.89757516E+01  d E =-.885153E+01  mag=     0.0000
       N       E                     dE             d eps       ncg     rms          rms(c)
DAV:   1    -0.808601594076E+01   -0.91433E-01   -0.18766E+01 20272   0.205E+01    0.691E-01
DAV:   2    -0.810613638447E+01   -0.20120E-01   -0.24825E-01 21240   0.291E+00    0.642E-01
DAV:   3    -0.810143400076E+01    0.47024E-02   -0.16291E-02 21400   0.603E-01    0.333E-01
DAV:   4    -0.810101605762E+01    0.41794E-03   -0.43933E-03 21200   0.281E-01    0.203E-01
DAV:   5    -0.810077048627E+01    0.24557E-03   -0.10436E-03 21424   0.183E-01    0.357E-02
DAV:   6    -0.810072435984E+01    0.46126E-04   -0.11685E-04 21336   0.868E-02    0.169E-02
DAV:   7    -0.810071483104E+01    0.95288E-05   -0.35294E-05 21936   0.303E-02    0.629E-03
DAV:   8    -0.810071411489E+01    0.71615E-06   -0.53828E-06 21352   0.116E-02
   8 F= -.90844817E+01 E0= -.90831631E+01  d E =-.107597E+00  mag=     0.0000
       N       E                     dE             d eps       ncg     rms          rms(c)
DAV:   1    -0.817406588016E+01   -0.73351E-01   -0.43394E+01 20288   0.312E+01    0.896E-01
DAV:   2    -0.822377762095E+01   -0.49712E-01   -0.66346E-01 21296   0.438E+00    0.916E-01
DAV:   3    -0.820999662517E+01    0.13781E-01   -0.36445E-02 21448   0.851E-01    0.468E-01
DAV:   4    -0.820889808580E+01    0.10985E-02   -0.52056E-03 21424   0.353E-01    0.282E-01
DAV:   5    -0.820875793517E+01    0.14015E-03   -0.30018E-03 21464   0.260E-01    0.616E-02
DAV:   6    -0.820861423195E+01    0.14370E-03   -0.45443E-04 21272   0.131E-01    0.288E-02
DAV:   7    -0.820858908613E+01    0.25146E-04   -0.93419E-05 21720   0.495E-02    0.100E-02
DAV:   8    -0.820858821127E+01    0.87487E-06   -0.10005E-05 21584   0.166E-02    0.221E-03
DAV:   9    -0.820858829354E+01   -0.82276E-07   -0.52854E-07 12528   0.841E-03
   9 F= -.91936244E+01 E0= -.91923575E+01  d E =-.216740E+00  mag=     0.0000
       N       E                     dE             d eps       ncg     rms          rms(c)
DAV:   1    -0.814906545552E+01    0.59523E-01   -0.17824E+02 20400   0.641E+01    0.148E+00
DAV:   2    -0.833118011841E+01   -0.18211E+00   -0.30200E+00 21400   0.863E+00    0.170E+00
DAV:   3    -0.828368761669E+01    0.47493E-01   -0.19211E-01 21320   0.163E+00    0.809E-01
DAV:   4    -0.828105827675E+01    0.26293E-02   -0.32719E-02 21720   0.724E-01    0.615E-01
DAV:   5    -0.827892218460E+01    0.21361E-02   -0.29576E-02 21856   0.548E-01    0.115E-01
DAV:   6    -0.827854831185E+01    0.37387E-03   -0.23842E-03 21104   0.286E-01    0.634E-02
DAV:   7    -0.827843802289E+01    0.11029E-03   -0.41669E-04 21600   0.106E-01    0.236E-02
DAV:   8    -0.827843407483E+01    0.39481E-05   -0.95963E-05 22080   0.356E-02    0.789E-03
DAV:   9    -0.827843359006E+01    0.48477E-06   -0.10083E-05 16296   0.171E-02    0.195E-03
DAV:  10    -0.827843393592E+01   -0.34586E-06   -0.47158E-07 12408   0.517E-03
  10 F= -.92636995E+01 E0= -.92623472E+01  d E =-.286815E+00  mag=    -0.0000
       N       E                     dE             d eps       ncg     rms          rms(c)
DAV:   1    -0.827797965633E+01    0.45393E-03   -0.12600E+00 20424   0.530E+00    0.133E-01
DAV:   2    -0.827976081190E+01   -0.17812E-02   -0.31493E-02 22048   0.832E-01    0.178E-01
DAV:   3    -0.827897482014E+01    0.78599E-03   -0.68797E-03 22568   0.185E-01    0.644E-02
DAV:   4    -0.827893910982E+01    0.35710E-04   -0.18507E-04 21632   0.602E-02    0.438E-02
DAV:   5    -0.827893000922E+01    0.91006E-05   -0.12889E-04 22000   0.503E-02    0.910E-03
DAV:   6    -0.827892749610E+01    0.25131E-05   -0.76827E-06 21552   0.245E-02    0.440E-03
DAV:   7    -0.827892688156E+01    0.61454E-06   -0.21582E-06 15144   0.786E-03
  11 F= -.92643509E+01 E0= -.92629962E+01  d E =-.287467E+00  mag=    -0.0000
       N       E                     dE             d eps       ncg     rms          rms(c)
DAV:   1    -0.828750435417E+01   -0.85769E-02   -0.78999E+00 20272   0.120E+01    0.412E-01
DAV:   2    -0.829725760404E+01   -0.97532E-02   -0.13767E-01 21792   0.175E+00    0.348E-01
DAV:   3    -0.829496212127E+01    0.22955E-02   -0.32895E-02 21984   0.370E-01    0.181E-01
DAV:   4    -0.829459411810E+01    0.36800E-03   -0.41751E-03 21688   0.160E-01    0.116E-01
DAV:   5    -0.829455148130E+01    0.42637E-04   -0.10860E-03 21432   0.953E-02    0.236E-02
DAV:   6    -0.829452255121E+01    0.28930E-04   -0.17091E-04 21240   0.486E-02    0.911E-03
DAV:   7    -0.829451963293E+01    0.29183E-05   -0.11913E-05 21752   0.177E-02    0.314E-03
DAV:   8    -0.829451940965E+01    0.22329E-06   -0.15806E-06 13576   0.550E-03
  12 F= -.92841864E+01 E0= -.92826977E+01  d E =-.198355E-01  mag=    -0.0000
       N       E                     dE             d eps       ncg     rms          rms(c)
DAV:   1    -0.829103844003E+01    0.34812E-02   -0.69858E+00 20272   0.113E+01    0.430E-01
DAV:   2    -0.829923296280E+01   -0.81945E-02   -0.11514E-01 21712   0.163E+00    0.343E-01
DAV:   3    -0.829771265681E+01    0.15203E-02   -0.30950E-02 21936   0.357E-01    0.186E-01
DAV:   4    -0.829727424789E+01    0.43841E-03   -0.47275E-03 21304   0.174E-01    0.115E-01
DAV:   5    -0.829724069962E+01    0.33548E-04   -0.62674E-04 21296   0.847E-02    0.206E-02
DAV:   6    -0.829721733666E+01    0.23363E-04   -0.81167E-05 21096   0.448E-02    0.694E-03
DAV:   7    -0.829721589470E+01    0.14420E-05   -0.65343E-06 22160   0.150E-02    0.262E-03
DAV:   8    -0.829721575898E+01    0.13572E-06   -0.80459E-07 12048   0.448E-03
  13 F= -.92907907E+01 E0= -.92894079E+01  d E =-.264398E-01  mag=    -0.0000
       N       E                     dE             d eps       ncg     rms          rms(c)
DAV:   1    -0.829910648288E+01   -0.18906E-02   -0.18793E+00 20272   0.534E+00    0.161E-01
DAV:   2    -0.830137269296E+01   -0.22662E-02   -0.31363E-02 21776   0.766E-01    0.164E-01
DAV:   3    -0.830080026478E+01    0.57243E-03   -0.55027E-03 22416   0.175E-01    0.731E-02
DAV:   4    -0.830074561540E+01    0.54649E-04   -0.45261E-04 21896   0.658E-02    0.523E-02
DAV:   5    -0.830072986599E+01    0.15749E-04   -0.20788E-04 22136   0.647E-02    0.112E-02
DAV:   6    -0.830072679707E+01    0.30689E-05   -0.11464E-05 21304   0.294E-02    0.577E-03
DAV:   7    -0.830072569723E+01    0.10998E-05   -0.33701E-06 21568   0.791E-03    0.240E-03
DAV:   8    -0.830072557326E+01    0.12398E-06   -0.58630E-07 11792   0.473E-03
  14 F= -.92954813E+01 E0= -.92940770E+01  d E =-.469064E-02  mag=    -0.0000
       N       E                     dE             d eps       ncg     rms          rms(c)
DAV:   1    -0.830006880187E+01    0.65690E-03   -0.31925E+00 20272   0.697E+00    0.220E-01
DAV:   2    -0.830382853866E+01   -0.37597E-02   -0.55079E-02 21744   0.100E+00    0.214E-01
DAV:   3    -0.830294581117E+01    0.88273E-03   -0.10710E-02 22520   0.241E-01    0.972E-02
DAV:   4    -0.830285414715E+01    0.91664E-04   -0.90388E-04 21920   0.908E-02    0.685E-02
DAV:   5    -0.830282951947E+01    0.24628E-04   -0.34100E-04 22032   0.889E-02    0.143E-02
DAV:   6    -0.830282427061E+01    0.52489E-05   -0.18940E-05 21496   0.376E-02    0.724E-03
DAV:   7    -0.830282257922E+01    0.16914E-05   -0.52135E-06 21664   0.102E-02    0.301E-03
DAV:   8    -0.830282239300E+01    0.18622E-06   -0.93213E-07 12480   0.578E-03
  15 F= -.92990879E+01 E0= -.92977465E+01  d E =-.829715E-02  mag=    -0.0000
       N       E                     dE             d eps       ncg     rms          rms(c)
DAV:   1    -0.828587299275E+01    0.16950E-01   -0.12799E+01 20272   0.141E+01    0.486E-01
DAV:   2    -0.830071594778E+01   -0.14843E-01   -0.20873E-01 21752   0.207E+00    0.434E-01
DAV:   3    -0.829756922943E+01    0.31467E-02   -0.40425E-02 22352   0.455E-01    0.203E-01
DAV:   4    -0.829707062865E+01    0.49860E-03   -0.56053E-03 22200   0.209E-01    0.144E-01
DAV:   5    -0.829696452226E+01    0.10611E-03   -0.11929E-03 21712   0.167E-01    0.296E-02
DAV:   6    -0.829694352332E+01    0.20999E-04   -0.63150E-05 21656   0.769E-02    0.139E-02
DAV:   7    -0.829693709087E+01    0.64325E-05   -0.22860E-05 21680   0.211E-02    0.563E-03
DAV:   8    -0.829693672460E+01    0.36627E-06   -0.29585E-06 21648   0.111E-02
  16 F= -.92960494E+01 E0= -.92946848E+01  d E =-.525868E-02  mag=    -0.0000
       N       E                     dE             d eps       ncg     rms          rms(c)
DAV:   1    -0.829703884258E+01   -0.10175E-03   -0.67970E+00 20288   0.102E+01    0.327E-01
DAV:   2    -0.830473557257E+01   -0.76967E-02   -0.11548E-01 21712   0.144E+00    0.334E-01
DAV:   3    -0.830291010828E+01    0.18255E-02   -0.18437E-02 21784   0.317E-01    0.163E-01
DAV:   4    -0.830273862460E+01    0.17148E-03   -0.20432E-03 21752   0.143E-01    0.113E-01
DAV:   5    -0.830268030787E+01    0.58317E-04   -0.86451E-04 22088   0.122E-01    0.232E-02
DAV:   6    -0.830266495562E+01    0.15352E-04   -0.45450E-05 21376   0.585E-02    0.114E-02
DAV:   7    -0.830266059677E+01    0.43588E-05   -0.14905E-05 21784   0.176E-02    0.431E-03
DAV:   8    -0.830266026451E+01    0.33226E-06   -0.22961E-06 18728   0.973E-03
  17 F= -.92997185E+01 E0= -.92984168E+01  d E =-.892783E-02  mag=    -0.0000
       N       E                     dE             d eps       ncg     rms          rms(c)
DAV:   1    -0.830255784624E+01    0.10275E-03   -0.14567E-02 20808   0.535E-01    0.151E-02
DAV:   2    -0.830257502070E+01   -0.17174E-04   -0.26096E-04 21840   0.900E-02    0.160E-02
DAV:   3    -0.830257076982E+01    0.42509E-05   -0.52830E-05 21808   0.221E-02    0.710E-03
DAV:   4    -0.830257047642E+01    0.29340E-06   -0.37962E-06 15424   0.109E-02
  18 F= -.92997268E+01 E0= -.92984278E+01  d E =-.893607E-02  mag=    -0.0000
