<?xml version="1.0" encoding="ISO-8859-1"?>
<modeling>
 <generator>
  <i name="program" type="string">vasp </i>
  <i name="version" type="string">5.4.1  </i>
  <i name="subversion" type="string">05Feb16 (build Sep 09 2016 09:44:48) complex                          parallel </i>
  <i name="platform" type="string">IFC91_ompi </i>
  <i name="date" type="string">2023 02 19 </i>
  <i name="time" type="string">03:15:08 </i>
 </generator>
 <incar>
  <i type="string" name="SYSTEM"> Slab Fe 1x1 4Layers</i>
  <i type="int" name="ISTART">     0</i>
  <i type="string" name="PREC">accurate</i>
  <i type="int" name="ISPIN">     2</i>
  <i type="int" name="ICHARG">     2</i>
  <i type="int" name="NELM">   100</i>
  <i type="int" name="IBRION">     2</i>
  <i name="EDIFF">      0.00000100</i>
  <i name="EDIFFG">     -0.01000000</i>
  <i type="int" name="NSW">  5000</i>
  <i type="int" name="ISIF">     2</i>
  <i type="int" name="ISYM">     0</i>
  <i name="ENCUT">    450.00000000</i>
  <i name="POTIM">      0.25000000</i>
  <i type="string" name="LREAL"> Auto</i>
  <i type="int" name="ISMEAR">     0</i>
  <i name="SIGMA">      0.05000000</i>
  <i type="int" name="NWRITE">     2</i>
  <i type="logical" name="LWAVE"> F  </i>
  <i type="logical" name="LCHARG"> F  </i>
  <v type="int" name="KPOINT_BSE">    -1     0     0     0</v>
  <i type="int" name="NELM">   100</i>
  <i type="int" name="IDIPOL">     3</i>
 </incar>
 <kpoints>
  <generation param="Monkhorst-Pack">
   <v type="int" name="divisions">      19       19        1 </v>
   <v name="usershift">      0.00000000       0.00000000       0.00000000 </v>
   <v name="genvec1">      0.05263158       0.00000000       0.00000000 </v>
   <v name="genvec2">      0.00000000       0.05263158       0.00000000 </v>
   <v name="genvec3">      0.00000000       0.00000000       1.00000000 </v>
   <v name="shift">      0.00000000       0.00000000       0.00000000 </v>
  </generation>
  <varray name="kpointlist" >
   <v>       0.00000000       0.00000000       0.00000000 </v>
   <v>       0.05263158       0.00000000       0.00000000 </v>
   <v>       0.10526316       0.00000000       0.00000000 </v>
   <v>       0.15789474       0.00000000       0.00000000 </v>
   <v>       0.21052632       0.00000000       0.00000000 </v>
   <v>       0.26315789       0.00000000       0.00000000 </v>
   <v>       0.31578947       0.00000000       0.00000000 </v>
   <v>       0.36842105       0.00000000       0.00000000 </v>
   <v>       0.42105263       0.00000000       0.00000000 </v>
   <v>       0.47368421       0.00000000       0.00000000 </v>
   <v>       0.00000000       0.05263158       0.00000000 </v>
   <v>       0.05263158       0.05263158       0.00000000 </v>
   <v>       0.10526316       0.05263158       0.00000000 </v>
   <v>       0.15789474       0.05263158       0.00000000 </v>
   <v>       0.21052632       0.05263158       0.00000000 </v>
   <v>       0.26315789       0.05263158       0.00000000 </v>
   <v>       0.31578947       0.05263158       0.00000000 </v>
   <v>       0.36842105       0.05263158       0.00000000 </v>
   <v>       0.42105263       0.05263158       0.00000000 </v>
   <v>       0.47368421       0.05263158       0.00000000 </v>
   <v>      -0.47368421       0.05263158       0.00000000 </v>
   <v>      -0.42105263       0.05263158       0.00000000 </v>
   <v>      -0.36842105       0.05263158       0.00000000 </v>
   <v>      -0.31578947       0.05263158       0.00000000 </v>
   <v>      -0.26315789       0.05263158       0.00000000 </v>
   <v>      -0.21052632       0.05263158       0.00000000 </v>
   <v>      -0.15789474       0.05263158       0.00000000 </v>
   <v>      -0.10526316       0.05263158       0.00000000 </v>
   <v>      -0.05263158       0.05263158       0.00000000 </v>
   <v>       0.00000000       0.10526316       0.00000000 </v>
   <v>       0.05263158       0.10526316       0.00000000 </v>
   <v>       0.10526316       0.10526316       0.00000000 </v>
   <v>       0.15789474       0.10526316       0.00000000 </v>
   <v>       0.21052632       0.10526316       0.00000000 </v>
   <v>       0.26315789       0.10526316       0.00000000 </v>
   <v>       0.31578947       0.10526316       0.00000000 </v>
   <v>       0.36842105       0.10526316       0.00000000 </v>
   <v>       0.42105263       0.10526316       0.00000000 </v>
   <v>       0.47368421       0.10526316       0.00000000 </v>
   <v>      -0.47368421       0.10526316       0.00000000 </v>
   <v>      -0.42105263       0.10526316       0.00000000 </v>
   <v>      -0.36842105       0.10526316       0.00000000 </v>
   <v>      -0.31578947       0.10526316       0.00000000 </v>
   <v>      -0.26315789       0.10526316       0.00000000 </v>
   <v>      -0.21052632       0.10526316       0.00000000 </v>
   <v>      -0.15789474       0.10526316       0.00000000 </v>
   <v>      -0.10526316       0.10526316       0.00000000 </v>
   <v>      -0.05263158       0.10526316       0.00000000 </v>
   <v>       0.00000000       0.15789474       0.00000000 </v>
   <v>       0.05263158       0.15789474       0.00000000 </v>
   <v>       0.10526316       0.15789474       0.00000000 </v>
   <v>       0.15789474       0.15789474       0.00000000 </v>
   <v>       0.21052632       0.15789474       0.00000000 </v>
   <v>       0.26315789       0.15789474       0.00000000 </v>
   <v>       0.31578947       0.15789474       0.00000000 </v>
   <v>       0.36842105       0.15789474       0.00000000 </v>
   <v>       0.42105263       0.15789474       0.00000000 </v>
   <v>       0.47368421       0.15789474       0.00000000 </v>
   <v>      -0.47368421       0.15789474       0.00000000 </v>
   <v>      -0.42105263       0.15789474       0.00000000 </v>
   <v>      -0.36842105       0.15789474       0.00000000 </v>
   <v>      -0.31578947       0.15789474       0.00000000 </v>
   <v>      -0.26315789       0.15789474       0.00000000 </v>
   <v>      -0.21052632       0.15789474       0.00000000 </v>
   <v>      -0.15789474       0.15789474       0.00000000 </v>
   <v>      -0.10526316       0.15789474       0.00000000 </v>
   <v>      -0.05263158       0.15789474       0.00000000 </v>
   <v>       0.00000000       0.21052632       0.00000000 </v>
   <v>       0.05263158       0.21052632       0.00000000 </v>
   <v>       0.10526316       0.21052632       0.00000000 </v>
   <v>       0.15789474       0.21052632       0.00000000 </v>
   <v>       0.21052632       0.21052632       0.00000000 </v>
   <v>       0.26315789       0.21052632       0.00000000 </v>
   <v>       0.31578947       0.21052632       0.00000000 </v>
   <v>       0.36842105       0.21052632       0.00000000 </v>
   <v>       0.42105263       0.21052632       0.00000000 </v>
   <v>       0.47368421       0.21052632       0.00000000 </v>
   <v>      -0.47368421       0.21052632       0.00000000 </v>
   <v>      -0.42105263       0.21052632       0.00000000 </v>
   <v>      -0.36842105       0.21052632       0.00000000 </v>
   <v>      -0.31578947       0.21052632       0.00000000 </v>
   <v>      -0.26315789       0.21052632       0.00000000 </v>
   <v>      -0.21052632       0.21052632       0.00000000 </v>
   <v>      -0.15789474       0.21052632       0.00000000 </v>
   <v>      -0.10526316       0.21052632       0.00000000 </v>
   <v>      -0.05263158       0.21052632       0.00000000 </v>
   <v>       0.00000000       0.26315789       0.00000000 </v>
   <v>       0.05263158       0.26315789       0.00000000 </v>
   <v>       0.10526316       0.26315789       0.00000000 </v>
   <v>       0.15789474       0.26315789       0.00000000 </v>
   <v>       0.21052632       0.26315789       0.00000000 </v>
   <v>       0.26315789       0.26315789       0.00000000 </v>
   <v>       0.31578947       0.26315789       0.00000000 </v>
   <v>       0.36842105       0.26315789       0.00000000 </v>
   <v>       0.42105263       0.26315789       0.00000000 </v>
   <v>       0.47368421       0.26315789       0.00000000 </v>
   <v>      -0.47368421       0.26315789       0.00000000 </v>
   <v>      -0.42105263       0.26315789       0.00000000 </v>
   <v>      -0.36842105       0.26315789       0.00000000 </v>
   <v>      -0.31578947       0.26315789       0.00000000 </v>
   <v>      -0.26315789       0.26315789       0.00000000 </v>
   <v>      -0.21052632       0.26315789       0.00000000 </v>
   <v>      -0.15789474       0.26315789       0.00000000 </v>
   <v>      -0.10526316       0.26315789       0.00000000 </v>
   <v>      -0.05263158       0.26315789       0.00000000 </v>
   <v>       0.00000000       0.31578947       0.00000000 </v>
   <v>       0.05263158       0.31578947       0.00000000 </v>
   <v>       0.10526316       0.31578947       0.00000000 </v>
   <v>       0.15789474       0.31578947       0.00000000 </v>
   <v>       0.21052632       0.31578947       0.00000000 </v>
   <v>       0.26315789       0.31578947       0.00000000 </v>
   <v>       0.31578947       0.31578947       0.00000000 </v>
   <v>       0.36842105       0.31578947       0.00000000 </v>
   <v>       0.42105263       0.31578947       0.00000000 </v>
   <v>       0.47368421       0.31578947       0.00000000 </v>
   <v>      -0.47368421       0.31578947       0.00000000 </v>
   <v>      -0.42105263       0.31578947       0.00000000 </v>
   <v>      -0.36842105       0.31578947       0.00000000 </v>
   <v>      -0.31578947       0.31578947       0.00000000 </v>
   <v>      -0.26315789       0.31578947       0.00000000 </v>
   <v>      -0.21052632       0.31578947       0.00000000 </v>
   <v>      -0.15789474       0.31578947       0.00000000 </v>
   <v>      -0.10526316       0.31578947       0.00000000 </v>
   <v>      -0.05263158       0.31578947       0.00000000 </v>
   <v>       0.00000000       0.36842105       0.00000000 </v>
   <v>       0.05263158       0.36842105       0.00000000 </v>
   <v>       0.10526316       0.36842105       0.00000000 </v>
   <v>       0.15789474       0.36842105       0.00000000 </v>
   <v>       0.21052632       0.36842105       0.00000000 </v>
   <v>       0.26315789       0.36842105       0.00000000 </v>
   <v>       0.31578947       0.36842105       0.00000000 </v>
   <v>       0.36842105       0.36842105       0.00000000 </v>
   <v>       0.42105263       0.36842105       0.00000000 </v>
   <v>       0.47368421       0.36842105       0.00000000 </v>
   <v>      -0.47368421       0.36842105       0.00000000 </v>
   <v>      -0.42105263       0.36842105       0.00000000 </v>
   <v>      -0.36842105       0.36842105       0.00000000 </v>
   <v>      -0.31578947       0.36842105       0.00000000 </v>
   <v>      -0.26315789       0.36842105       0.00000000 </v>
   <v>      -0.21052632       0.36842105       0.00000000 </v>
   <v>      -0.15789474       0.36842105       0.00000000 </v>
   <v>      -0.10526316       0.36842105       0.00000000 </v>
   <v>      -0.05263158       0.36842105       0.00000000 </v>
   <v>       0.00000000       0.42105263       0.00000000 </v>
   <v>       0.05263158       0.42105263       0.00000000 </v>
   <v>       0.10526316       0.42105263       0.00000000 </v>
   <v>       0.15789474       0.42105263       0.00000000 </v>
   <v>       0.21052632       0.42105263       0.00000000 </v>
   <v>       0.26315789       0.42105263       0.00000000 </v>
   <v>       0.31578947       0.42105263       0.00000000 </v>
   <v>       0.36842105       0.42105263       0.00000000 </v>
   <v>       0.42105263       0.42105263       0.00000000 </v>
   <v>       0.47368421       0.42105263       0.00000000 </v>
   <v>      -0.47368421       0.42105263       0.00000000 </v>
   <v>      -0.42105263       0.42105263       0.00000000 </v>
   <v>      -0.36842105       0.42105263       0.00000000 </v>
   <v>      -0.31578947       0.42105263       0.00000000 </v>
   <v>      -0.26315789       0.42105263       0.00000000 </v>
   <v>      -0.21052632       0.42105263       0.00000000 </v>
   <v>      -0.15789474       0.42105263       0.00000000 </v>
   <v>      -0.10526316       0.42105263       0.00000000 </v>
   <v>      -0.05263158       0.42105263       0.00000000 </v>
   <v>       0.00000000       0.47368421       0.00000000 </v>
   <v>       0.05263158       0.47368421       0.00000000 </v>
   <v>       0.10526316       0.47368421       0.00000000 </v>
   <v>       0.15789474       0.47368421       0.00000000 </v>
   <v>       0.21052632       0.47368421       0.00000000 </v>
   <v>       0.26315789       0.47368421       0.00000000 </v>
   <v>       0.31578947       0.47368421       0.00000000 </v>
   <v>       0.36842105       0.47368421       0.00000000 </v>
   <v>       0.42105263       0.47368421       0.00000000 </v>
   <v>       0.47368421       0.47368421       0.00000000 </v>
   <v>      -0.47368421       0.47368421       0.00000000 </v>
   <v>      -0.42105263       0.47368421       0.00000000 </v>
   <v>      -0.36842105       0.47368421       0.00000000 </v>
   <v>      -0.31578947       0.47368421       0.00000000 </v>
   <v>      -0.26315789       0.47368421       0.00000000 </v>
   <v>      -0.21052632       0.47368421       0.00000000 </v>
   <v>      -0.15789474       0.47368421       0.00000000 </v>
   <v>      -0.10526316       0.47368421       0.00000000 </v>
   <v>      -0.05263158       0.47368421       0.00000000 </v>
  </varray>
  <varray name="weights" >
   <v>       0.00277008 </v>
   <v>       0.00554017 </v>
   <v>       0.00554017 </v>
   <v>       0.00554017 </v>
   <v>       0.00554017 </v>
   <v>       0.00554017 </v>
   <v>       0.00554017 </v>
   <v>       0.00554017 </v>
   <v>       0.00554017 </v>
   <v>       0.00554017 </v>
   <v>       0.00554017 </v>
   <v>       0.00554017 </v>
   <v>       0.00554017 </v>
   <v>       0.00554017 </v>
   <v>       0.00554017 </v>
   <v>       0.00554017 </v>
   <v>       0.00554017 </v>
   <v>       0.00554017 </v>
   <v>       0.00554017 </v>
   <v>       0.00554017 </v>
   <v>       0.00554017 </v>
   <v>       0.00554017 </v>
   <v>       0.00554017 </v>
   <v>       0.00554017 </v>
   <v>       0.00554017 </v>
   <v>       0.00554017 </v>
   <v>       0.00554017 </v>
   <v>       0.00554017 </v>
   <v>       0.00554017 </v>
   <v>       0.00554017 </v>
   <v>       0.00554017 </v>
   <v>       0.00554017 </v>
   <v>       0.00554017 </v>
   <v>       0.00554017 </v>
   <v>       0.00554017 </v>
   <v>       0.00554017 </v>
   <v>       0.00554017 </v>
   <v>       0.00554017 </v>
   <v>       0.00554017 </v>
   <v>       0.00554017 </v>
   <v>       0.00554017 </v>
   <v>       0.00554017 </v>
   <v>       0.00554017 </v>
   <v>       0.00554017 </v>
   <v>       0.00554017 </v>
   <v>       0.00554017 </v>
   <v>       0.00554017 </v>
   <v>       0.00554017 </v>
   <v>       0.00554017 </v>
   <v>       0.00554017 </v>
   <v>       0.00554017 </v>
   <v>       0.00554017 </v>
   <v>       0.00554017 </v>
   <v>       0.00554017 </v>
   <v>       0.00554017 </v>
   <v>       0.00554017 </v>
   <v>       0.00554017 </v>
   <v>       0.00554017 </v>
   <v>       0.00554017 </v>
   <v>       0.00554017 </v>
   <v>       0.00554017 </v>
   <v>       0.00554017 </v>
   <v>       0.00554017 </v>
   <v>       0.00554017 </v>
   <v>       0.00554017 </v>
   <v>       0.00554017 </v>
   <v>       0.00554017 </v>
   <v>       0.00554017 </v>
   <v>       0.00554017 </v>
   <v>       0.00554017 </v>
   <v>       0.00554017 </v>
   <v>       0.00554017 </v>
   <v>       0.00554017 </v>
   <v>       0.00554017 </v>
   <v>       0.00554017 </v>
   <v>       0.00554017 </v>
   <v>       0.00554017 </v>
   <v>       0.00554017 </v>
   <v>       0.00554017 </v>
   <v>       0.00554017 </v>
   <v>       0.00554017 </v>
   <v>       0.00554017 </v>
   <v>       0.00554017 </v>
   <v>       0.00554017 </v>
   <v>       0.00554017 </v>
   <v>       0.00554017 </v>
   <v>       0.00554017 </v>
   <v>       0.00554017 </v>
   <v>       0.00554017 </v>
   <v>       0.00554017 </v>
   <v>       0.00554017 </v>
   <v>       0.00554017 </v>
   <v>       0.00554017 </v>
   <v>       0.00554017 </v>
   <v>       0.00554017 </v>
   <v>       0.00554017 </v>
   <v>       0.00554017 </v>
   <v>       0.00554017 </v>
   <v>       0.00554017 </v>
   <v>       0.00554017 </v>
   <v>       0.00554017 </v>
   <v>       0.00554017 </v>
   <v>       0.00554017 </v>
   <v>       0.00554017 </v>
   <v>       0.00554017 </v>
   <v>       0.00554017 </v>
   <v>       0.00554017 </v>
   <v>       0.00554017 </v>
   <v>       0.00554017 </v>
   <v>       0.00554017 </v>
   <v>       0.00554017 </v>
   <v>       0.00554017 </v>
   <v>       0.00554017 </v>
   <v>       0.00554017 </v>
   <v>       0.00554017 </v>
   <v>       0.00554017 </v>
   <v>       0.00554017 </v>
   <v>       0.00554017 </v>
   <v>       0.00554017 </v>
   <v>       0.00554017 </v>
   <v>       0.00554017 </v>
   <v>       0.00554017 </v>
   <v>       0.00554017 </v>
   <v>       0.00554017 </v>
   <v>       0.00554017 </v>
   <v>       0.00554017 </v>
   <v>       0.00554017 </v>
   <v>       0.00554017 </v>
   <v>       0.00554017 </v>
   <v>       0.00554017 </v>
   <v>       0.00554017 </v>
   <v>       0.00554017 </v>
   <v>       0.00554017 </v>
   <v>       0.00554017 </v>
   <v>       0.00554017 </v>
   <v>       0.00554017 </v>
   <v>       0.00554017 </v>
   <v>       0.00554017 </v>
   <v>       0.00554017 </v>
   <v>       0.00554017 </v>
   <v>       0.00554017 </v>
   <v>       0.00554017 </v>
   <v>       0.00554017 </v>
   <v>       0.00554017 </v>
   <v>       0.00554017 </v>
   <v>       0.00554017 </v>
   <v>       0.00554017 </v>
   <v>       0.00554017 </v>
   <v>       0.00554017 </v>
   <v>       0.00554017 </v>
   <v>       0.00554017 </v>
   <v>       0.00554017 </v>
   <v>       0.00554017 </v>
   <v>       0.00554017 </v>
   <v>       0.00554017 </v>
   <v>       0.00554017 </v>
   <v>       0.00554017 </v>
   <v>       0.00554017 </v>
   <v>       0.00554017 </v>
   <v>       0.00554017 </v>
   <v>       0.00554017 </v>
   <v>       0.00554017 </v>
   <v>       0.00554017 </v>
   <v>       0.00554017 </v>
   <v>       0.00554017 </v>
   <v>       0.00554017 </v>
   <v>       0.00554017 </v>
   <v>       0.00554017 </v>
   <v>       0.00554017 </v>
   <v>       0.00554017 </v>
   <v>       0.00554017 </v>
   <v>       0.00554017 </v>
   <v>       0.00554017 </v>
   <v>       0.00554017 </v>
   <v>       0.00554017 </v>
   <v>       0.00554017 </v>
   <v>       0.00554017 </v>
   <v>       0.00554017 </v>
   <v>       0.00554017 </v>
   <v>       0.00554017 </v>
   <v>       0.00554017 </v>
  </varray>
 </kpoints>
 <parameters>
  <separator name="general" >
   <i type="string" name="SYSTEM">Slab Fe 1x1 4Layers</i>
   <i type="logical" name="LCOMPAT"> F  </i>
  </separator>
  <separator name="electronic" >
   <i type="string" name="PREC">accura</i>
   <i name="ENMAX">    450.00000000</i>
   <i name="ENAUG">    356.67000000</i>
   <i name="EDIFF">      0.00000100</i>
   <i type="int" name="IALGO">    38</i>
   <i type="int" name="IWAVPR">    11</i>
   <i type="int" name="NBANDS">    28</i>
   <i name="NELECT">     44.00000000</i>
   <i type="int" name="TURBO">     0</i>
   <i type="int" name="IRESTART">     0</i>
   <i type="int" name="NREBOOT">     0</i>
   <i type="int" name="NMIN">     0</i>
   <i name="EREF">      0.00000000</i>
   <separator name="electronic smearing" >
    <i type="int" name="ISMEAR">     0</i>
    <i name="SIGMA">      0.05000000</i>
    <i name="KSPACING">      0.50000000</i>
    <i type="logical" name="KGAMMA"> T  </i>
   </separator>
   <separator name="electronic projectors" >
    <i type="logical" name="LREAL"> T  </i>
    <v name="ROPT">     -0.00025000</v>
    <i type="int" name="LMAXPAW">  -100</i>
    <i type="int" name="LMAXMIX">     2</i>
    <i type="logical" name="NLSPLINE"> F  </i>
   </separator>
   <separator name="electronic startup" >
    <i type="int" name="ISTART">     0</i>
    <i type="int" name="ICHARG">     2</i>
    <i type="int" name="INIWAV">     1</i>
   </separator>
   <separator name="electronic spin" >
    <i type="int" name="ISPIN">     2</i>
    <i type="logical" name="LNONCOLLINEAR"> F  </i>
    <v name="MAGMOM">      1.00000000      1.00000000      1.00000000      1.00000000</v>
    <i name="NUPDOWN">     -1.00000000</i>
    <i type="logical" name="LSORBIT"> F  </i>
    <v name="SAXIS">      0.00000000      0.00000000      1.00000000</v>
    <i type="logical" name="LSPIRAL"> F  </i>
    <v name="QSPIRAL">      0.00000000      0.00000000      0.00000000</v>
    <i type="logical" name="LZEROZ"> F  </i>
   </separator>
   <separator name="electronic exchange-correlation" >
    <i type="logical" name="LASPH"> F  </i>
    <i type="logical" name="LMETAGGA"> F  </i>
   </separator>
   <separator name="electronic convergence" >
    <i type="int" name="NELM">   100</i>
    <i type="int" name="NELMDL">    -5</i>
    <i type="int" name="NELMIN">     2</i>
    <i name="ENINI">    450.00000000</i>
    <separator name="electronic convergence detail" >
     <i type="logical" name="LDIAG"> T  </i>
     <i type="logical" name="LSUBROT"> F  </i>
     <i name="WEIMIN">      0.00100000</i>
     <i name="EBREAK">      0.00000001</i>
     <i name="DEPER">      0.30000000</i>
     <i type="int" name="NRMM">     4</i>
     <i name="TIME">      0.40000000</i>
    </separator>
   </separator>
   <separator name="electronic mixer" >
    <i name="AMIX">      0.40000000</i>
    <i name="BMIX">      1.00000000</i>
    <i name="AMIN">      0.10000000</i>
    <i name="AMIX_MAG">      1.60000000</i>
    <i name="BMIX_MAG">      1.00000000</i>
    <separator name="electronic mixer details" >
     <i type="int" name="IMIX">     4</i>
     <i type="logical" name="MIXFIRST"> F  </i>
     <i type="int" name="MAXMIX">   -45</i>
     <i name="WC">    100.00000000</i>
     <i type="int" name="INIMIX">     1</i>
     <i type="int" name="MIXPRE">     1</i>
     <i type="int" name="MREMOVE">     5</i>
    </separator>
   </separator>
   <separator name="electronic dipolcorrection" >
    <i type="logical" name="LDIPOL"> F  </i>
    <i type="logical" name="LMONO"> F  </i>
    <i type="int" name="IDIPOL">     3</i>
    <i name="EPSILON">      1.00000000</i>
    <v name="DIPOL">   -100.00000000   -100.00000000   -100.00000000</v>
    <i name="EFIELD">      0.00000000</i>
   </separator>
  </separator>
  <separator name="grids" >
   <i type="int" name="NGX">    28</i>
   <i type="int" name="NGY">    20</i>
   <i type="int" name="NGZ">   140</i>
   <i type="int" name="NGXF">    56</i>
   <i type="int" name="NGYF">    40</i>
   <i type="int" name="NGZF">   280</i>
   <i type="logical" name="ADDGRID"> F  </i>
  </separator>
  <separator name="ionic" >
   <i type="int" name="NSW">  5000</i>
   <i type="int" name="IBRION">     2</i>
   <i type="int" name="ISIF">     2</i>
   <i name="PSTRESS">      0.00000000</i>
   <i name="EDIFFG">     -0.01000000</i>
   <i type="int" name="NFREE">     1</i>
   <i name="POTIM">      0.25000000</i>
   <i name="SMASS">     -3.00000000</i>
   <i name="SCALEE">      1.00000000</i>
  </separator>
  <separator name="ionic md" >
   <i name="TEBEG">      0.00010000</i>
   <i name="TEEND">      0.00010000</i>
   <i type="int" name="NBLOCK">     1</i>
   <i type="int" name="KBLOCK">  5000</i>
   <i type="int" name="NPACO">   256</i>
   <i name="APACO">     16.00000000</i>
  </separator>
  <separator name="symmetry" >
   <i type="int" name="ISYM">     0</i>
   <i name="SYMPREC">      0.00001000</i>
  </separator>
  <separator name="dos" >
   <i type="logical" name="LORBIT"> F  </i>
   <v name="RWIGS">     -1.00000000</v>
   <i type="int" name="NEDOS">   301</i>
   <i name="EMIN">     10.00000000</i>
   <i name="EMAX">    -10.00000000</i>
   <i name="EFERMI">      0.00000000</i>
  </separator>
  <separator name="writing" >
   <i type="int" name="NWRITE">     2</i>
   <i type="logical" name="LWAVE"> F  </i>
   <i type="logical" name="LCHARG"> F  </i>
   <i type="logical" name="LPARD"> F  </i>
   <i type="logical" name="LVTOT"> F  </i>
   <i type="logical" name="LVHAR"> F  </i>
   <i type="logical" name="LELF"> F  </i>
   <i type="logical" name="LOPTICS"> F  </i>
   <v name="STM">      0.00000000      0.00000000      0.00000000      0.00000000      0.00000000      0.00000000      0.00000000</v>
  </separator>
  <separator name="performance" >
   <i type="int" name="NPAR">     1</i>
   <i type="int" name="NSIM">     4</i>
   <i type="int" name="NBLK">    -1</i>
   <i type="logical" name="LPLANE"> T  </i>
   <i type="logical" name="LSCALAPACK"> F  </i>
   <i type="logical" name="LSCAAWARE"> F  </i>
   <i type="logical" name="LSCALU"> F  </i>
   <i type="logical" name="LASYNC"> F  </i>
   <i type="logical" name="LORBITALREAL"> F  </i>
  </separator>
  <separator name="miscellaneous" >
   <i type="int" name="IDIOT">     3</i>
   <i type="logical" name="LMUSIC"> F  </i>
   <v name="POMASS">    196.96600000</v>
   <v name="DARWINR">      0.00000000</v>
   <v name="DARWINV">      1.00000000</v>
   <i type="logical" name="LCORR"> T  </i>
  </separator>
  <i type="logical" name="GGA_COMPAT"> T  </i>
  <i type="logical" name="LBERRY"> F  </i>
  <i type="int" name="ICORELEVEL">     0</i>
  <i type="logical" name="LDAU"> F  </i>
  <i type="int" name="I_CONSTRAINED_M">     0</i>
  <separator name="electronic exchange-correlation" >
   <i type="string" name="GGA">--</i>
   <i type="int" name="VOSKOWN">     0</i>
   <i type="logical" name="LHFCALC"> F  </i>
   <i type="string" name="PRECFOCK"></i>
   <i type="logical" name="LSYMGRAD"> F  </i>
   <i type="logical" name="LHFONE"> F  </i>
   <i type="logical" name="LRHFCALC"> F  </i>
   <i type="logical" name="LTHOMAS"> F  </i>
   <i type="logical" name="LMODELHF"> F  </i>
   <i name="ENCUT4O">     -1.00000000</i>
   <i type="int" name="EXXOEP">     0</i>
   <i type="int" name="FOURORBIT">     0</i>
   <i name="AEXX">      0.00000000</i>
   <i name="HFALPHA">      0.00000000</i>
   <i name="MCALPHA">      0.00000000</i>
   <i name="ALDAX">      1.00000000</i>
   <i name="AGGAX">      1.00000000</i>
   <i name="ALDAC">      1.00000000</i>
   <i name="AGGAC">      1.00000000</i>
   <i type="int" name="NKREDX">     1</i>
   <i type="int" name="NKREDY">     1</i>
   <i type="int" name="NKREDZ">     1</i>
   <i type="logical" name="SHIFTRED"> F  </i>
   <i type="logical" name="ODDONLY"> F  </i>
   <i type="logical" name="EVENONLY"> F  </i>
   <i type="int" name="LMAXFOCK">     0</i>
   <i type="int" name="NMAXFOCKAE">     0</i>
   <i type="logical" name="LFOCKAEDFT"> F  </i>
   <i name="HFSCREEN">      0.00000000</i>
   <i name="HFSCREENC">      0.00000000</i>
   <i type="int" name="NBANDSGWLOW">     0</i>
  </separator>
  <separator name="vdW DFT" >
   <i type="logical" name="LUSE_VDW"> F  </i>
   <i name="Zab_VDW">     -0.84910000</i>
   <i name="PARAM1">      0.12340000</i>
   <i name="PARAM2">      1.00000000</i>
   <i name="PARAM3">      0.00000000</i>
  </separator>
  <separator name="model GW" >
   <i type="int" name="MODEL_GW">     0</i>
   <i name="MODEL_EPS0">     34.46447328</i>
   <i name="MODEL_ALPHA">      1.00000000</i>
  </separator>
  <separator name="linear response parameters" >
   <i type="logical" name="LEPSILON"> F  </i>
   <i type="logical" name="LRPA"> F  </i>
   <i type="logical" name="LNABLA"> F  </i>
   <i type="logical" name="LVEL"> F  </i>
   <i type="int" name="KINTER">     0</i>
   <i name="CSHIFT">      0.10000000</i>
   <i name="OMEGAMAX">     -1.00000000</i>
   <i name="DEG_THRESHOLD">      0.00200000</i>
  </separator>
  <separator name="orbital magnetization" >
   <i type="logical" name="NUCIND"> F  </i>
   <v name="MAGPOS">      0.00000000      0.00000000      0.00000000</v>
   <i type="logical" name="LNICSALL"> T  </i>
   <i type="logical" name="ORBITALMAG"> F  </i>
   <i type="logical" name="LMAGBLOCH"> F  </i>
   <i type="logical" name="LCHIMAG"> F  </i>
   <i type="logical" name="LGAUGE"> T  </i>
   <i type="int" name="MAGATOM">     0</i>
   <v name="MAGDIPOL">      0.00000000      0.00000000      0.00000000</v>
   <v name="AVECCONST">      0.00000000      0.00000000      0.00000000</v>
  </separator>
  <separator name="response functions" >
   <i type="logical" name="LADDER"> F  </i>
   <i type="logical" name="LFXC"> F  </i>
   <i type="logical" name="LHARTREE"> T  </i>
   <i type="int" name="IBSE">     0</i>
   <v type="int" name="KPOINT">    -1     0     0     0</v>
   <i type="logical" name="LTCTE"> F  </i>
   <i type="logical" name="LTETE"> F  </i>
   <i type="logical" name="LTRIPLET"> F  </i>
   <i type="logical" name="LFXCEPS"> F  </i>
   <i type="logical" name="LFXHEG"> F  </i>
   <i type="int" name="NATURALO">     0</i>
   <i type="logical" name="L2ORDER"> F  </i>
   <i type="logical" name="LUSEW"> F  </i>
   <i name="ENCUTGW">     -2.00000000</i>
   <i name="ENCUTGWSOFT">     -2.00000000</i>
   <i name="ENCUTLF">     -1.00000000</i>
   <i type="int" name="LMAXMP2">    -1</i>
   <i name="SCISSOR">      0.00000000</i>
   <i type="int" name="NOMEGA">     0</i>
   <i type="int" name="NOMEGAR">     0</i>
   <i type="int" name="NBANDSGW">    -1</i>
   <i type="int" name="NBANDSO">    -1</i>
   <i type="int" name="NBANDSV">    -1</i>
   <i type="int" name="NELM">   100</i>
   <i type="int" name="NELMHF">     1</i>
   <i type="int" name="DIM">     3</i>
   <i type="int" name="ANTIRES">     0</i>
   <i name="OMEGAMAX">    -30.00000000</i>
   <i name="OMEGAMIN">    -30.00000000</i>
   <i name="OMEGATL">   -200.00000000</i>
   <i type="int" name="OMEGAGRID">     0</i>
   <i name="CSHIFT">     -0.10000000</i>
   <i type="logical" name="SELFENERGY"> F  </i>
   <i type="logical" name="LSPECTRAL"> F  </i>
   <i type="logical" name="LSPECTRALGW"> F  </i>
   <i type="logical" name="LSINGLES"> F  </i>
   <i type="logical" name="LFERMIGW"> F  </i>
   <i type="logical" name="ODDONLYGW"> F  </i>
   <i type="logical" name="EVENONLYGW"> F  </i>
   <i type="int" name="NKREDLFX">     1</i>
   <i type="int" name="NKREDLFY">     1</i>
   <i type="int" name="NKREDLFZ">     1</i>
   <i type="int" name="MAXMEM">  1800</i>
   <i type="int" name="TELESCOPE">     0</i>
   <i type="int" name="TAUPAR">     1</i>
   <i type="int" name="OMEGAPAR">    -1</i>
   <i name="LAMBDA">      1.00000000</i>
  </separator>
  <separator name="External order field" >
   <i name="OFIELD_KAPPA">      0.00000000</i>
   <v name="OFIELD_K">      0.00000000      0.00000000      0.00000000</v>
   <i name="OFIELD_Q6_NEAR">      0.00000000</i>
   <i name="OFIELD_Q6_FAR">      0.00000000</i>
   <i name="OFIELD_A">      0.00000000</i>
  </separator>
 </parameters>
 <atominfo>
  <atoms>       4 </atoms>
  <types>       1 </types>
  <array name="atoms" >
   <dimension dim="1">ion</dimension>
   <field type="string">element</field>
   <field type="int">atomtype</field>
   <set>
    <rc><c>Au</c><c>   1</c></rc>
    <rc><c>Au</c><c>   1</c></rc>
    <rc><c>Au</c><c>   1</c></rc>
    <rc><c>Au</c><c>   1</c></rc>
   </set>
  </array>
  <array name="atomtypes" >
   <dimension dim="1">type</dimension>
   <field type="int">atomspertype</field>
   <field type="string">element</field>
   <field>mass</field>
   <field>valence</field>
   <field type="string">pseudopotential</field>
   <set>
    <rc><c>   4</c><c>Au</c><c>    196.96600000</c><c>     11.00000000</c><c>  PAW_PBE Au 04Oct2007                  </c></rc>
   </set>
  </array>
 </atominfo>
 <structure name="initialpos" >
  <crystal>
   <varray name="basis" >
    <v>       4.09820000       0.00000000       0.00000000 </v>
    <v>       0.00000000       2.89786501       0.00000000 </v>
    <v>       0.00000000       0.00000000      19.34679752 </v>
   </varray>
   <i name="volume">    229.76315518 </i>
   <varray name="rec_basis" >
    <v>       0.24400957       0.00000000       0.00000000 </v>
    <v>       0.00000000       0.34508164       0.00000000 </v>
    <v>       0.00000000       0.00000000       0.05168814 </v>
   </varray>
  </crystal>
  <varray name="positions" >
   <v>       0.04910000       0.44893251       0.50000000 </v>
   <v>       0.00000000       0.00000000       0.94893251 </v>
   <v>       0.04910000       0.44893251       0.39786501 </v>
   <v>       0.00000000       0.00000000       0.84679752 </v>
  </varray>
  <varray name="selective"  type="logical" >
   <v type="logical" >  F  F  F </v>
   <v type="logical" >  T  T  T </v>
   <v type="logical" >  T  T  T </v>
   <v type="logical" >  T  T  T </v>
  </varray>
  <nose>
   <v>      -3.00000000       0.00000000       0.00010000       0.00010000 </v>
  </nose>
 </structure>
 <calculation>
  <scstep>
   <time name="dav">   11.43   11.76</time>
   <time name="total">   11.63   11.96</time>
   <energy>
    <i name="alphaZ">     81.11281717 </i>
    <i name="ewald">   -474.05395577 </i>
    <i name="hartreedc">  -3295.11299621 </i>
    <i name="XCdc">     60.64217985 </i>
    <i name="pawpsdc">   3496.08590032 </i>
    <i name="pawaedc">  -3403.74950362 </i>
    <i name="eentropy">     -0.00332009 </i>
    <i name="bandstr">     91.61122946 </i>
    <i name="atom">   3704.32389242 </i>
    <i name="e_fr_energy">    260.85624353 </i>
    <i name="e_wo_entrp">    260.85956362 </i>
    <i name="e_0_energy">    260.85790358 </i>
   </energy>
  </scstep>
  <scstep>
   <time name="dav">   12.95   12.96</time>
   <time name="total">   12.98   13.00</time>
   <energy>
    <i name="e_fr_energy">     15.72817294 </i>
    <i name="e_wo_entrp">     15.73154106 </i>
    <i name="e_0_energy">     15.72985700 </i>
   </energy>
  </scstep>
  <scstep>
   <time name="dav">   12.47   12.49</time>
   <time name="total">   12.50   12.52</time>
   <energy>
    <i name="e_fr_energy">      0.76299764 </i>
    <i name="e_wo_entrp">      0.76679071 </i>
    <i name="e_0_energy">      0.76489417 </i>
   </energy>
  </scstep>
  <scstep>
   <time name="dav">   11.57   11.59</time>
   <time name="total">   11.60   11.62</time>
   <energy>
    <i name="e_fr_energy">      0.48003771 </i>
    <i name="e_wo_entrp">      0.48388816 </i>
    <i name="e_0_energy">      0.48196294 </i>
   </energy>
  </scstep>
  <scstep>
   <time name="dav">   11.95   11.96</time>
   <time name="total">   12.95   12.98</time>
   <energy>
    <i name="e_fr_energy">      0.47332009 </i>
    <i name="e_wo_entrp">      0.47716715 </i>
    <i name="e_0_energy">      0.47524362 </i>
   </energy>
  </scstep>
  <scstep>
   <time name="dav">   11.11   11.12</time>
   <time name="total">   12.13   12.16</time>
   <energy>
    <i name="e_fr_energy">      4.73944293 </i>
    <i name="e_wo_entrp">      4.74174172 </i>
    <i name="e_0_energy">      4.74059233 </i>
   </energy>
  </scstep>
  <scstep>
   <time name="dav">   11.14   11.16</time>
   <time name="total">   12.12   12.14</time>
   <energy>
    <i name="e_fr_energy">      7.95444447 </i>
    <i name="e_wo_entrp">      7.95615079 </i>
    <i name="e_0_energy">      7.95529763 </i>
   </energy>
  </scstep>
  <scstep>
   <time name="dav">   11.36   11.38</time>
   <time name="total">   12.36   12.39</time>
   <energy>
    <i name="e_fr_energy">      5.89830624 </i>
    <i name="e_wo_entrp">      5.90220362 </i>
    <i name="e_0_energy">      5.90025493 </i>
   </energy>
  </scstep>
  <scstep>
   <time name="dav">   11.32   11.33</time>
   <time name="total">   12.30   12.32</time>
   <energy>
    <i name="e_fr_energy">      4.24021021 </i>
    <i name="e_wo_entrp">      4.24393651 </i>
    <i name="e_0_energy">      4.24207336 </i>
   </energy>
  </scstep>
  <scstep>
   <time name="dav">   11.68   11.70</time>
   <time name="total">   12.65   12.67</time>
   <energy>
    <i name="e_fr_energy">      3.25285878 </i>
    <i name="e_wo_entrp">      3.25522632 </i>
    <i name="e_0_energy">      3.25404255 </i>
   </energy>
  </scstep>
  <scstep>
   <time name="dav">   11.31   11.32</time>
   <time name="total">   12.30   12.31</time>
   <energy>
    <i name="e_fr_energy">      2.69924236 </i>
    <i name="e_wo_entrp">      2.70119147 </i>
    <i name="e_0_energy">      2.70021692 </i>
   </energy>
  </scstep>
  <scstep>
   <time name="dav">   11.12   11.13</time>
   <time name="total">   12.10   12.11</time>
   <energy>
    <i name="e_fr_energy">      1.51742306 </i>
    <i name="e_wo_entrp">      1.51900343 </i>
    <i name="e_0_energy">      1.51821324 </i>
   </energy>
  </scstep>
  <scstep>
   <time name="dav">   11.44   11.45</time>
   <time name="total">   12.45   12.46</time>
   <energy>
    <i name="e_fr_energy">      1.21684334 </i>
    <i name="e_wo_entrp">      1.21894235 </i>
    <i name="e_0_energy">      1.21789284 </i>
   </energy>
  </scstep>
  <scstep>
   <time name="dav">   11.30   11.31</time>
   <time name="total">   12.31   12.33</time>
   <energy>
    <i name="e_fr_energy">      1.13821720 </i>
    <i name="e_wo_entrp">      1.14013671 </i>
    <i name="e_0_energy">      1.13917695 </i>
   </energy>
  </scstep>
  <scstep>
   <time name="dav">   11.17   11.18</time>
   <time name="total">   12.15   12.17</time>
   <energy>
    <i name="e_fr_energy">      1.03071913 </i>
    <i name="e_wo_entrp">      1.03249702 </i>
    <i name="e_0_energy">      1.03160807 </i>
   </energy>
  </scstep>
  <scstep>
   <time name="dav">   11.18   11.19</time>
   <time name="total">   12.17   12.19</time>
   <energy>
    <i name="e_fr_energy">      0.96139104 </i>
    <i name="e_wo_entrp">      0.96335542 </i>
    <i name="e_0_energy">      0.96237323 </i>
   </energy>
  </scstep>
  <scstep>
   <time name="dav">   11.18   11.20</time>
   <time name="total">   12.17   12.19</time>
   <energy>
    <i name="e_fr_energy">      0.94760521 </i>
    <i name="e_wo_entrp">      0.94951442 </i>
    <i name="e_0_energy">      0.94855982 </i>
   </energy>
  </scstep>
  <scstep>
   <time name="dav">   11.12   11.14</time>
   <time name="total">   12.11   12.13</time>
   <energy>
    <i name="e_fr_energy">      0.93485715 </i>
    <i name="e_wo_entrp">      0.93683236 </i>
    <i name="e_0_energy">      0.93584476 </i>
   </energy>
  </scstep>
  <scstep>
   <time name="dav">   11.48   11.50</time>
   <time name="total">   12.46   12.49</time>
   <energy>
    <i name="e_fr_energy">      0.93050331 </i>
    <i name="e_wo_entrp">      0.93251791 </i>
    <i name="e_0_energy">      0.93151061 </i>
   </energy>
  </scstep>
  <scstep>
   <time name="dav">   11.10   11.11</time>
   <time name="total">   12.05   12.07</time>
   <energy>
    <i name="e_fr_energy">      0.92786087 </i>
    <i name="e_wo_entrp">      0.92988266 </i>
    <i name="e_0_energy">      0.92887176 </i>
   </energy>
  </scstep>
  <scstep>
   <time name="dav">   11.24   11.26</time>
   <time name="total">   12.33   12.34</time>
   <energy>
    <i name="e_fr_energy">      0.92740847 </i>
    <i name="e_wo_entrp">      0.92942488 </i>
    <i name="e_0_energy">      0.92841667 </i>
   </energy>
  </scstep>
  <scstep>
   <time name="dav">   11.38   11.39</time>
   <time name="total">   12.36   12.37</time>
   <energy>
    <i name="e_fr_energy">      0.92726714 </i>
    <i name="e_wo_entrp">      0.92927912 </i>
    <i name="e_0_energy">      0.92827313 </i>
   </energy>
  </scstep>
  <scstep>
   <time name="dav">   11.16   11.17</time>
   <time name="total">   12.18   12.19</time>
   <energy>
    <i name="e_fr_energy">      0.92713100 </i>
    <i name="e_wo_entrp">      0.92913982 </i>
    <i name="e_0_energy">      0.92813541 </i>
   </energy>
  </scstep>
  <scstep>
   <time name="dav">   11.47   11.49</time>
   <time name="total">   12.45   12.47</time>
   <energy>
    <i name="e_fr_energy">      0.92696090 </i>
    <i name="e_wo_entrp">      0.92896943 </i>
    <i name="e_0_energy">      0.92796516 </i>
   </energy>
  </scstep>
  <scstep>
   <time name="dav">    9.80    9.81</time>
   <time name="total">   10.79   10.80</time>
   <energy>
    <i name="e_fr_energy">      0.92693411 </i>
    <i name="e_wo_entrp">      0.92894217 </i>
    <i name="e_0_energy">      0.92793814 </i>
   </energy>
  </scstep>
  <scstep>
   <time name="dav">    9.07    9.08</time>
   <time name="total">   10.06   10.08</time>
   <energy>
    <i name="e_fr_energy">      0.92693149 </i>
    <i name="e_wo_entrp">      0.92893886 </i>
    <i name="e_0_energy">      0.92793517 </i>
   </energy>
  </scstep>
  <scstep>
   <time name="dav">    9.02    9.02</time>
   <time name="total">    9.14    9.15</time>
   <energy>
    <i name="alphaZ">     81.11281717 </i>
    <i name="ewald">   -474.05395577 </i>
    <i name="hartreedc">  -3266.38235316 </i>
    <i name="XCdc">     58.92439125 </i>
    <i name="pawpsdc">   4635.43531365 </i>
    <i name="pawaedc">  -4556.37586585 </i>
    <i name="eentropy">     -0.00200721 </i>
    <i name="bandstr">   -182.05530128 </i>
    <i name="atom">   3704.32389242 </i>
    <i name="e_fr_energy">      0.92693123 </i>
    <i name="e_wo_entrp">      0.92893843 </i>
    <i name="e_0_energy">      0.92793483 </i>
   </energy>
  </scstep>
  <dipole>
   <v name="dipole">      0.00000000       0.00000000       0.00029490 </v>
   <i name="Tr[quadrupol]">    -37.46367169 </i>
   <i name="Echarged">      0.00000000 </i>
   <i name="Edipol_quadrupol">      0.00000000 </i>
   <i name="Eion">      0.00000000 </i>
  </dipole>
  <structure>
   <crystal>
    <varray name="basis" >
     <v>       4.09820000       0.00000000       0.00000000 </v>
     <v>       0.00000000       2.89786501       0.00000000 </v>
     <v>       0.00000000       0.00000000      19.34679752 </v>
    </varray>
    <i name="volume">    229.76315518 </i>
    <varray name="rec_basis" >
     <v>       0.24400957       0.00000000       0.00000000 </v>
     <v>       0.00000000       0.34508164       0.00000000 </v>
     <v>       0.00000000       0.00000000       0.05168814 </v>
    </varray>
   </crystal>
   <varray name="positions" >
    <v>       0.04910000       0.44893251       0.50000000 </v>
    <v>       0.00000000       0.00000000       0.94893251 </v>
    <v>       0.04910000       0.44893251       0.39786501 </v>
    <v>       0.00000000       0.00000000       0.84679752 </v>
   </varray>
  </structure>
  <varray name="forces" >
   <v>       0.00130324       0.00037277      22.90847859 </v>
   <v>      -0.00006900       0.00006840      22.89104850 </v>
   <v>      -0.00120723      -0.00047370     -22.89202477 </v>
   <v>      -0.00002702       0.00003254     -22.90750231 </v>
  </varray>
  <varray name="stress" >
   <v>     -24.92028658       0.00517609       0.00280433 </v>
   <v>       0.00517639     -37.48880447      -0.00094844 </v>
   <v>       0.00280406      -0.00094849     629.32170324 </v>
  </varray>
  <energy>
   <i name="e_fr_energy">     -0.12535601 </i>
   <i name="e_wo_entrp">     -0.12435241 </i>
   <i name="e_0_energy">     -0.00200721 </i>
  </energy>
  <time name="totalsc">  341.71  342.56</time>
 </calculation>
 <calculation>
  <scstep>
   <time name="dav">   12.02   12.03</time>
   <time name="total">   13.02   13.04</time>
   <energy>
    <i name="alphaZ">     81.11281717 </i>
    <i name="ewald">  -1437.55872166 </i>
    <i name="hartreedc">  -2333.72373091 </i>
    <i name="XCdc">     55.62648723 </i>
    <i name="pawpsdc">   4635.45740746 </i>
    <i name="pawaedc">  -4556.39806224 </i>
    <i name="eentropy">     -0.00844276 </i>
    <i name="bandstr">   -130.22849870 </i>
    <i name="atom">   3704.32389242 </i>
    <i name="e_fr_energy">     18.60314802 </i>
    <i name="e_wo_entrp">     18.61159078 </i>
    <i name="e_0_energy">     18.60736940 </i>
   </energy>
  </scstep>
  <scstep>
   <time name="dav">   11.65   11.66</time>
   <time name="total">   12.64   12.66</time>
   <energy>
    <i name="e_fr_energy">     -8.87017067 </i>
    <i name="e_wo_entrp">     -8.86297224 </i>
    <i name="e_0_energy">     -8.86657146 </i>
   </energy>
  </scstep>
  <scstep>
   <time name="dav">   11.99   12.00</time>
   <time name="total">   12.98   13.00</time>
   <energy>
    <i name="e_fr_energy">     -8.28183417 </i>
    <i name="e_wo_entrp">     -8.27890807 </i>
    <i name="e_0_energy">     -8.28037112 </i>
   </energy>
  </scstep>
  <scstep>
   <time name="dav">   11.65   11.66</time>
   <time name="total">   12.63   12.65</time>
   <energy>
    <i name="e_fr_energy">     -8.37202998 </i>
    <i name="e_wo_entrp">     -8.36866730 </i>
    <i name="e_0_energy">     -8.37034864 </i>
   </energy>
  </scstep>
  <scstep>
   <time name="dav">   11.47   11.48</time>
   <time name="total">   12.46   12.48</time>
   <energy>
    <i name="e_fr_energy">     -8.31132181 </i>
    <i name="e_wo_entrp">     -8.30824487 </i>
    <i name="e_0_energy">     -8.30978334 </i>
   </energy>
  </scstep>
  <scstep>
   <time name="dav">   11.66   11.67</time>
   <time name="total">   12.67   12.69</time>
   <energy>
    <i name="e_fr_energy">     -8.05208037 </i>
    <i name="e_wo_entrp">     -8.04891554 </i>
    <i name="e_0_energy">     -8.05049796 </i>
   </energy>
  </scstep>
  <scstep>
   <time name="dav">   11.66   11.67</time>
   <time name="total">   12.64   12.66</time>
   <energy>
    <i name="e_fr_energy">     -7.98655257 </i>
    <i name="e_wo_entrp">     -7.98356567 </i>
    <i name="e_0_energy">     -7.98505912 </i>
   </energy>
  </scstep>
  <scstep>
   <time name="dav">   11.87   11.88</time>
   <time name="total">   12.86   12.88</time>
   <energy>
    <i name="e_fr_energy">     -7.96574373 </i>
    <i name="e_wo_entrp">     -7.96304965 </i>
    <i name="e_0_energy">     -7.96439669 </i>
   </energy>
  </scstep>
  <scstep>
   <time name="dav">   11.61   11.63</time>
   <time name="total">   12.62   12.64</time>
   <energy>
    <i name="e_fr_energy">     -7.94908761 </i>
    <i name="e_wo_entrp">     -7.94663752 </i>
    <i name="e_0_energy">     -7.94786257 </i>
   </energy>
  </scstep>
  <scstep>
   <time name="dav">   11.77   11.78</time>
   <time name="total">   12.77   12.79</time>
   <energy>
    <i name="e_fr_energy">     -7.94735492 </i>
    <i name="e_wo_entrp">     -7.94494382 </i>
    <i name="e_0_energy">     -7.94614937 </i>
   </energy>
  </scstep>
  <scstep>
   <time name="dav">   11.67   11.68</time>
   <time name="total">   12.68   12.69</time>
   <energy>
    <i name="e_fr_energy">     -7.94721035 </i>
    <i name="e_wo_entrp">     -7.94481894 </i>
    <i name="e_0_energy">     -7.94601465 </i>
   </energy>
  </scstep>
  <scstep>
   <time name="dav">   11.61   11.63</time>
   <time name="total">   12.61   12.63</time>
   <energy>
    <i name="e_fr_energy">     -7.94721658 </i>
    <i name="e_wo_entrp">     -7.94480357 </i>
    <i name="e_0_energy">     -7.94601007 </i>
   </energy>
  </scstep>
  <scstep>
   <time name="dav">   11.51   11.53</time>
   <time name="total">   12.53   12.54</time>
   <energy>
    <i name="e_fr_energy">     -7.94720888 </i>
    <i name="e_wo_entrp">     -7.94480342 </i>
    <i name="e_0_energy">     -7.94600615 </i>
   </energy>
  </scstep>
  <scstep>
   <time name="dav">   11.69   11.70</time>
   <time name="total">   12.68   12.69</time>
   <energy>
    <i name="e_fr_energy">     -7.94719869 </i>
    <i name="e_wo_entrp">     -7.94480051 </i>
    <i name="e_0_energy">     -7.94599960 </i>
   </energy>
  </scstep>
  <scstep>
   <time name="dav">    9.90    9.91</time>
   <time name="total">   10.02   10.04</time>
   <energy>
    <i name="alphaZ">     81.11281717 </i>
    <i name="ewald">  -1437.55872166 </i>
    <i name="hartreedc">  -2342.94073740 </i>
    <i name="XCdc">     56.00207121 </i>
    <i name="pawpsdc">   3717.27873171 </i>
    <i name="pawaedc">  -3629.92771582 </i>
    <i name="eentropy">     -0.00239979 </i>
    <i name="bandstr">   -156.23513620 </i>
    <i name="atom">   3704.32389242 </i>
    <i name="e_fr_energy">     -7.94719836 </i>
    <i name="e_wo_entrp">     -7.94479856 </i>
    <i name="e_0_energy">     -7.94599846 </i>
   </energy>
  </scstep>
  <dipole>
   <v name="dipole">      0.00000000       0.00000000       0.15683013 </v>
   <i name="Tr[quadrupol]">    -37.42442385 </i>
   <i name="Echarged">      0.00000000 </i>
   <i name="Edipol_quadrupol">      0.00000000 </i>
   <i name="Eion">      0.00000000 </i>
  </dipole>
  <structure>
   <crystal>
    <varray name="basis" >
     <v>       4.09820000       0.00000000       0.00000000 </v>
     <v>       0.00000000       2.89786501       0.00000000 </v>
     <v>       0.00000000       0.00000000      19.34679752 </v>
    </varray>
    <i name="volume">    229.76315518 </i>
    <varray name="rec_basis" >
     <v>       0.24400957       0.00000000       0.00000000 </v>
     <v>       0.00000000       0.34508164       0.00000000 </v>
     <v>       0.00000000       0.00000000       0.05168814 </v>
    </varray>
   </crystal>
   <varray name="positions" >
    <v>       0.04910000       0.44893251       0.50000000 </v>
    <v>      -0.00000041       0.00000057       0.97747276 </v>
    <v>       0.04909289       0.44892856       0.36932354 </v>
    <v>      -0.00000016       0.00000027       0.81823675 </v>
   </varray>
  </structure>
  <varray name="forces" >
   <v>       0.00141363       0.00022337       0.68704541 </v>
   <v>      -0.00009124      -0.00009357      -0.93317976 </v>
   <v>      -0.00137517       0.00001177      -0.66745185 </v>
   <v>       0.00005277      -0.00014157       0.91358619 </v>
  </varray>
  <varray name="stress" >
   <v>     -30.30520535       0.00620973       0.00846915 </v>
   <v>       0.00620975     -75.31522978      -0.00135586 </v>
   <v>       0.00846913      -0.00135589     -10.37421729 </v>
  </varray>
  <energy>
   <i name="e_fr_energy">     -8.91361640 </i>
   <i name="e_wo_entrp">     -8.91241650 </i>
   <i name="e_0_energy">     -0.00239979 </i>
  </energy>
  <time name="totalsc">  204.40  204.70</time>
 </calculation>
 <calculation>
  <scstep>
   <time name="dav">   10.95   10.96</time>
   <time name="total">   11.94   11.96</time>
   <energy>
    <i name="alphaZ">     81.11281717 </i>
    <i name="ewald">  -1130.92310645 </i>
    <i name="hartreedc">  -2646.96295712 </i>
    <i name="XCdc">     56.79971446 </i>
    <i name="pawpsdc">   3717.25326240 </i>
    <i name="pawaedc">  -3629.90066210 </i>
    <i name="eentropy">     -0.00277763 </i>
    <i name="bandstr">   -158.70368565 </i>
    <i name="atom">   3704.32389242 </i>
    <i name="e_fr_energy">     -7.00350250 </i>
    <i name="e_wo_entrp">     -7.00072486 </i>
    <i name="e_0_energy">     -7.00211368 </i>
   </energy>
  </scstep>
  <scstep>
   <time name="dav">   11.42   11.43</time>
   <time name="total">   12.40   12.42</time>
   <energy>
    <i name="e_fr_energy">     -7.81791590 </i>
    <i name="e_wo_entrp">     -7.81571752 </i>
    <i name="e_0_energy">     -7.81681671 </i>
   </energy>
  </scstep>
  <scstep>
   <time name="dav">   11.54   11.55</time>
   <time name="total">   12.53   12.55</time>
   <energy>
    <i name="e_fr_energy">     -7.83140740 </i>
    <i name="e_wo_entrp">     -7.82874037 </i>
    <i name="e_0_energy">     -7.83007388 </i>
   </energy>
  </scstep>
  <scstep>
   <time name="dav">   11.52   11.53</time>
   <time name="total">   12.51   12.53</time>
   <energy>
    <i name="e_fr_energy">     -7.78510335 </i>
    <i name="e_wo_entrp">     -7.78171712 </i>
    <i name="e_0_energy">     -7.78341024 </i>
   </energy>
  </scstep>
  <scstep>
   <time name="dav">   11.39   11.40</time>
   <time name="total">   12.46   12.50</time>
   <energy>
    <i name="e_fr_energy">     -7.78213368 </i>
    <i name="e_wo_entrp">     -7.77875412 </i>
    <i name="e_0_energy">     -7.78044390 </i>
   </energy>
  </scstep>
  <scstep>
   <time name="dav">   11.24   11.26</time>
   <time name="total">   12.24   12.25</time>
   <energy>
    <i name="e_fr_energy">     -7.78126483 </i>
    <i name="e_wo_entrp">     -7.77780518 </i>
    <i name="e_0_energy">     -7.77953500 </i>
   </energy>
  </scstep>
  <scstep>
   <time name="dav">   11.62   11.64</time>
   <time name="total">   12.65   12.67</time>
   <energy>
    <i name="e_fr_energy">     -7.78117934 </i>
    <i name="e_wo_entrp">     -7.77775863 </i>
    <i name="e_0_energy">     -7.77946899 </i>
   </energy>
  </scstep>
  <scstep>
   <time name="dav">   11.82   11.85</time>
   <time name="total">   12.81   12.85</time>
   <energy>
    <i name="e_fr_energy">     -7.78117073 </i>
    <i name="e_wo_entrp">     -7.77772244 </i>
    <i name="e_0_energy">     -7.77944659 </i>
   </energy>
  </scstep>
  <scstep>
   <time name="dav">   11.40   11.41</time>
   <time name="total">   12.37   12.39</time>
   <energy>
    <i name="e_fr_energy">     -7.78116941 </i>
    <i name="e_wo_entrp">     -7.77773438 </i>
    <i name="e_0_energy">     -7.77945190 </i>
   </energy>
  </scstep>
  <scstep>
   <time name="dav">    9.00    9.02</time>
   <time name="total">    9.12    9.15</time>
   <energy>
    <i name="alphaZ">     81.11281717 </i>
    <i name="ewald">  -1130.92310645 </i>
    <i name="hartreedc">  -2643.78106006 </i>
    <i name="XCdc">     56.63723736 </i>
    <i name="pawpsdc">   3856.09720185 </i>
    <i name="pawaedc">  -3770.38136132 </i>
    <i name="eentropy">     -0.00344136 </i>
    <i name="bandstr">   -160.86334833 </i>
    <i name="atom">   3704.32389242 </i>
    <i name="e_fr_energy">     -7.78116872 </i>
    <i name="e_wo_entrp">     -7.77772736 </i>
    <i name="e_0_energy">     -7.77944804 </i>
   </energy>
  </scstep>
  <dipole>
   <v name="dipole">      0.00000000       0.00000000       0.11069132 </v>
   <i name="Tr[quadrupol]">    -37.45795306 </i>
   <i name="Echarged">      0.00000000 </i>
   <i name="Edipol_quadrupol">      0.00000000 </i>
   <i name="Eion">      0.00000000 </i>
  </dipole>
  <structure>
   <crystal>
    <varray name="basis" >
     <v>       4.09820000       0.00000000       0.00000000 </v>
     <v>       0.00000000       2.89786501       0.00000000 </v>
     <v>       0.00000000       0.00000000      19.34679752 </v>
    </varray>
    <i name="volume">    229.76315518 </i>
    <varray name="rec_basis" >
     <v>       0.24400957       0.00000000       0.00000000 </v>
     <v>       0.00000000       0.34508164       0.00000000 </v>
     <v>       0.00000000       0.00000000       0.05168814 </v>
    </varray>
   </crystal>
   <varray name="positions" >
    <v>       0.04910000       0.44893251       0.50000000 </v>
    <v>      -0.00000025       0.00000035       0.96672358 </v>
    <v>       0.04909557       0.44893005       0.38007317 </v>
    <v>      -0.00000010       0.00000017       0.82899365 </v>
   </varray>
  </structure>
  <varray name="forces" >
   <v>       0.00158741       0.00044053       4.39334736 </v>
   <v>       0.00006832       0.00012304      -0.32539427 </v>
   <v>      -0.00183078      -0.00062648      -4.37613346 </v>
   <v>       0.00017504       0.00006291       0.30818037 </v>
  </varray>
  <varray name="stress" >
   <v>     -29.19088894       0.01021126       0.00309274 </v>
   <v>       0.01021136     -68.37103835      -0.00286482 </v>
   <v>       0.00309275      -0.00286481      63.13701179 </v>
  </varray>
  <energy>
   <i name="e_fr_energy">     -8.78962053 </i>
   <i name="e_wo_entrp">     -8.78789985 </i>
   <i name="e_0_energy">     -0.00344136 </i>
  </energy>
  <time name="totalsc">  137.63  137.89</time>
 </calculation>
 <calculation>
  <scstep>
   <time name="dav">   11.12   11.13</time>
   <time name="total">   12.15   12.17</time>
   <energy>
    <i name="alphaZ">     81.11281717 </i>
    <i name="ewald">  -1369.34012465 </i>
    <i name="hartreedc">  -2408.04802395 </i>
    <i name="XCdc">     56.00909159 </i>
    <i name="pawpsdc">   3855.89826639 </i>
    <i name="pawaedc">  -3770.18252911 </i>
    <i name="eentropy">     -0.00273169 </i>
    <i name="bandstr">   -157.35128711 </i>
    <i name="atom">   3704.32389242 </i>
    <i name="e_fr_energy">     -7.58062892 </i>
    <i name="e_wo_entrp">     -7.57789723 </i>
    <i name="e_0_energy">     -7.57926307 </i>
   </energy>
  </scstep>
  <scstep>
   <time name="dav">   11.48   11.50</time>
   <time name="total">   12.50   12.51</time>
   <energy>
    <i name="e_fr_energy">     -8.00210189 </i>
    <i name="e_wo_entrp">     -7.99963855 </i>
    <i name="e_0_energy">     -8.00087022 </i>
   </energy>
  </scstep>
  <scstep>
   <time name="dav">   11.52   11.54</time>
   <time name="total">   12.54   12.55</time>
   <energy>
    <i name="e_fr_energy">     -7.99406792 </i>
    <i name="e_wo_entrp">     -7.99177285 </i>
    <i name="e_0_energy">     -7.99292038 </i>
   </energy>
  </scstep>
  <scstep>
   <time name="dav">   11.40   11.41</time>
   <time name="total">   12.40   12.41</time>
   <energy>
    <i name="e_fr_energy">     -8.00461814 </i>
    <i name="e_wo_entrp">     -8.00176693 </i>
    <i name="e_0_energy">     -8.00319253 </i>
   </energy>
  </scstep>
  <scstep>
   <time name="dav">   12.66   12.67</time>
   <time name="total">   13.65   13.67</time>
   <energy>
    <i name="e_fr_energy">     -7.98892357 </i>
    <i name="e_wo_entrp">     -7.98658075 </i>
    <i name="e_0_energy">     -7.98775216 </i>
   </energy>
  </scstep>
  <scstep>
   <time name="dav">   11.32   11.33</time>
   <time name="total">   12.32   12.34</time>
   <energy>
    <i name="e_fr_energy">     -7.98720980 </i>
    <i name="e_wo_entrp">     -7.98494076 </i>
    <i name="e_0_energy">     -7.98607528 </i>
   </energy>
  </scstep>
  <scstep>
   <time name="dav">   11.44   11.46</time>
   <time name="total">   12.44   12.45</time>
   <energy>
    <i name="e_fr_energy">     -7.98700851 </i>
    <i name="e_wo_entrp">     -7.98474322 </i>
    <i name="e_0_energy">     -7.98587587 </i>
   </energy>
  </scstep>
  <scstep>
   <time name="dav">   11.72   11.74</time>
   <time name="total">   12.72   12.74</time>
   <energy>
    <i name="e_fr_energy">     -7.98699902 </i>
    <i name="e_wo_entrp">     -7.98472951 </i>
    <i name="e_0_energy">     -7.98586426 </i>
   </energy>
  </scstep>
  <scstep>
   <time name="dav">   11.36   11.37</time>
   <time name="total">   12.36   12.38</time>
   <energy>
    <i name="e_fr_energy">     -7.98700041 </i>
    <i name="e_wo_entrp">     -7.98473118 </i>
    <i name="e_0_energy">     -7.98586580 </i>
   </energy>
  </scstep>
  <scstep>
   <time name="dav">    8.00    8.01</time>
   <time name="total">    8.12    8.13</time>
   <energy>
    <i name="alphaZ">     81.11281717 </i>
    <i name="ewald">  -1369.34012465 </i>
    <i name="hartreedc">  -2410.27154304 </i>
    <i name="XCdc">     56.12276864 </i>
    <i name="pawpsdc">   3740.44246151 </i>
    <i name="pawaedc">  -3653.40758593 </i>
    <i name="eentropy">     -0.00226825 </i>
    <i name="bandstr">   -156.96741857 </i>
    <i name="atom">   3704.32389242 </i>
    <i name="e_fr_energy">     -7.98700068 </i>
    <i name="e_wo_entrp">     -7.98473243 </i>
    <i name="e_0_energy">     -7.98586656 </i>
   </energy>
  </scstep>
  <dipole>
   <v name="dipole">      0.00000000       0.00000000       0.14724125 </v>
   <i name="Tr[quadrupol]">    -37.42459475 </i>
   <i name="Echarged">      0.00000000 </i>
   <i name="Edipol_quadrupol">      0.00000000 </i>
   <i name="Eion">      0.00000000 </i>
  </dipole>
  <structure>
   <crystal>
    <varray name="basis" >
     <v>       4.09820000       0.00000000       0.00000000 </v>
     <v>       0.00000000       2.89786501       0.00000000 </v>
     <v>       0.00000000       0.00000000      19.34679752 </v>
    </varray>
    <i name="volume">    229.76315518 </i>
    <varray name="rec_basis" >
     <v>       0.24400957       0.00000000       0.00000000 </v>
     <v>       0.00000000       0.34508164       0.00000000 </v>
     <v>       0.00000000       0.00000000       0.05168814 </v>
    </varray>
   </crystal>
   <varray name="positions" >
    <v>       0.04910000       0.44893251       0.50000000 </v>
    <v>      -0.00000037       0.00000052       0.97489612 </v>
    <v>       0.04909354       0.44892892       0.37190029 </v>
    <v>      -0.00000014       0.00000025       0.82081524 </v>
   </varray>
  </structure>
  <varray name="forces" >
   <v>       0.00085578       0.00034587       1.27852194 </v>
   <v>      -0.00063979       0.00004111      -0.97069473 </v>
   <v>       0.00029205      -0.00036455      -1.25651907 </v>
   <v>      -0.00050804      -0.00002242       0.94869186 </v>
  </varray>
  <varray name="stress" >
   <v>     -29.62146680       0.00704307       0.01546498 </v>
   <v>       0.00704311     -74.06480867       0.00020791 </v>
   <v>       0.01546499       0.00020788      -0.49989470 </v>
  </varray>
  <energy>
   <i name="e_fr_energy">     -8.96184424 </i>
   <i name="e_wo_entrp">     -8.96071012 </i>
   <i name="e_0_energy">     -0.00226825 </i>
  </energy>
  <time name="totalsc">  137.59  137.78</time>
 </calculation>
 <calculation>
  <scstep>
   <time name="dav">   11.06   11.07</time>
   <time name="total">   12.05   12.07</time>
   <energy>
    <i name="alphaZ">     81.11281717 </i>
    <i name="ewald">  -1291.17932737 </i>
    <i name="hartreedc">  -2487.83249446 </i>
    <i name="XCdc">     56.31345227 </i>
    <i name="pawpsdc">   3740.43162093 </i>
    <i name="pawaedc">  -3653.39696250 </i>
    <i name="eentropy">     -0.00249362 </i>
    <i name="bandstr">   -157.70289293 </i>
    <i name="atom">   3704.32389242 </i>
    <i name="e_fr_energy">     -7.93238807 </i>
    <i name="e_wo_entrp">     -7.92989445 </i>
    <i name="e_0_energy">     -7.93114126 </i>
   </energy>
  </scstep>
  <scstep>
   <time name="dav">   11.08   11.09</time>
   <time name="total">   12.08   12.09</time>
   <energy>
    <i name="e_fr_energy">     -7.99199274 </i>
    <i name="e_wo_entrp">     -7.98958775 </i>
    <i name="e_0_energy">     -7.99079025 </i>
   </energy>
  </scstep>
  <scstep>
   <time name="dav">   11.34   11.35</time>
   <time name="total">   12.44   12.45</time>
   <energy>
    <i name="e_fr_energy">     -7.99017283 </i>
    <i name="e_wo_entrp">     -7.98778531 </i>
    <i name="e_0_energy">     -7.98897907 </i>
   </energy>
  </scstep>
  <scstep>
   <time name="dav">   11.47   11.48</time>
   <time name="total">   12.46   12.47</time>
   <energy>
    <i name="e_fr_energy">     -7.99018922 </i>
    <i name="e_wo_entrp">     -7.98767329 </i>
    <i name="e_0_energy">     -7.98893126 </i>
   </energy>
  </scstep>
  <scstep>
   <time name="dav">   11.53   11.54</time>
   <time name="total">   12.52   12.54</time>
   <energy>
    <i name="e_fr_energy">     -7.98987165 </i>
    <i name="e_wo_entrp">     -7.98754104 </i>
    <i name="e_0_energy">     -7.98870635 </i>
   </energy>
  </scstep>
  <scstep>
   <time name="dav">   11.60   11.62</time>
   <time name="total">   12.59   12.62</time>
   <energy>
    <i name="e_fr_energy">     -7.98969528 </i>
    <i name="e_wo_entrp">     -7.98726417 </i>
    <i name="e_0_energy">     -7.98847973 </i>
   </energy>
  </scstep>
  <scstep>
   <time name="dav">   11.37   11.39</time>
   <time name="total">   12.37   12.39</time>
   <energy>
    <i name="e_fr_energy">     -7.98968012 </i>
    <i name="e_wo_entrp">     -7.98725642 </i>
    <i name="e_0_energy">     -7.98846827 </i>
   </energy>
  </scstep>
  <scstep>
   <time name="dav">   11.40   11.42</time>
   <time name="total">   11.54   11.56</time>
   <energy>
    <i name="alphaZ">     81.11281717 </i>
    <i name="ewald">  -1291.17932737 </i>
    <i name="hartreedc">  -2486.93020913 </i>
    <i name="XCdc">     56.27337680 </i>
    <i name="pawpsdc">   3772.06391868 </i>
    <i name="pawaedc">  -3685.40964561 </i>
    <i name="eentropy">     -0.00242321 </i>
    <i name="bandstr">   -158.24207936 </i>
    <i name="atom">   3704.32389242 </i>
    <i name="e_fr_energy">     -7.98967960 </i>
    <i name="e_wo_entrp">     -7.98725639 </i>
    <i name="e_0_energy">     -7.98846800 </i>
   </energy>
  </scstep>
  <dipole>
   <v name="dipole">      0.00000000       0.00000000       0.13867336 </v>
   <i name="Tr[quadrupol]">    -37.42235497 </i>
   <i name="Echarged">      0.00000000 </i>
   <i name="Edipol_quadrupol">      0.00000000 </i>
   <i name="Eion">      0.00000000 </i>
  </dipole>
  <structure>
   <crystal>
    <varray name="basis" >
     <v>       4.09820000       0.00000000       0.00000000 </v>
     <v>       0.00000000       2.89786501       0.00000000 </v>
     <v>       0.00000000       0.00000000      19.34679752 </v>
    </varray>
    <i name="volume">    229.76315518 </i>
    <varray name="rec_basis" >
     <v>       0.24400957       0.00000000       0.00000000 </v>
     <v>       0.00000000       0.34508164       0.00000000 </v>
     <v>       0.00000000       0.00000000       0.05168814 </v>
    </varray>
   </crystal>
   <varray name="positions" >
    <v>       0.04910000       0.44893251       0.50000000 </v>
    <v>      -0.00000033       0.00000046       0.97208432 </v>
    <v>       0.04909424       0.44892931       0.37471221 </v>
    <v>      -0.00000013       0.00000022       0.82362906 </v>
   </varray>
  </structure>
  <varray name="forces" >
   <v>       0.00130415      -0.00011984       2.14056679 </v>
   <v>      -0.00020400      -0.00043071      -0.90943220 </v>
   <v>      -0.00102229       0.00104258      -2.12518824 </v>
   <v>      -0.00007787      -0.00049203       0.89405365 </v>
  </varray>
  <varray name="stress" >
   <v>     -29.44896863       0.00906186       0.00697807 </v>
   <v>       0.00906196     -72.76980213       0.00432928 </v>
   <v>       0.00697800       0.00432924      15.63435633 </v>
  </varray>
  <energy>
   <i name="e_fr_energy">     -8.97487465 </i>
   <i name="e_wo_entrp">     -8.97366305 </i>
   <i name="e_0_energy">     -0.00242321 </i>
  </energy>
  <time name="totalsc">  114.66  114.84</time>
 </calculation>
 <calculation>
  <scstep>
   <time name="dav">   11.06   11.08</time>
   <time name="total">   12.06   12.11</time>
   <energy>
    <i name="alphaZ">     81.11281717 </i>
    <i name="ewald">  -1317.10563401 </i>
    <i name="hartreedc">  -2461.23411787 </i>
    <i name="XCdc">     56.20866930 </i>
    <i name="pawpsdc">   3772.00138678 </i>
    <i name="pawaedc">  -3685.34705090 </i>
    <i name="eentropy">     -0.00227358 </i>
    <i name="bandstr">   -157.94672848 </i>
    <i name="atom">   3704.32389242 </i>
    <i name="e_fr_energy">     -7.98903917 </i>
    <i name="e_wo_entrp">     -7.98676558 </i>
    <i name="e_0_energy">     -7.98790238 </i>
   </energy>
  </scstep>
  <scstep>
   <time name="dav">   11.10   11.12</time>
   <time name="total">   12.10   12.11</time>
   <energy>
    <i name="e_fr_energy">     -7.99527130 </i>
    <i name="e_wo_entrp">     -7.99300468 </i>
    <i name="e_0_energy">     -7.99413799 </i>
   </energy>
  </scstep>
  <scstep>
   <time name="dav">   11.39   11.40</time>
   <time name="total">   12.48   12.50</time>
   <energy>
    <i name="e_fr_energy">     -7.99507190 </i>
    <i name="e_wo_entrp">     -7.99280212 </i>
    <i name="e_0_energy">     -7.99393701 </i>
   </energy>
  </scstep>
  <scstep>
   <time name="dav">   11.43   11.44</time>
   <time name="total">   12.44   12.45</time>
   <energy>
    <i name="e_fr_energy">     -7.99508976 </i>
    <i name="e_wo_entrp">     -7.99282298 </i>
    <i name="e_0_energy">     -7.99395637 </i>
   </energy>
  </scstep>
  <scstep>
   <time name="dav">   11.40   11.42</time>
   <time name="total">   12.41   12.42</time>
   <energy>
    <i name="e_fr_energy">     -7.99503404 </i>
    <i name="e_wo_entrp">     -7.99276507 </i>
    <i name="e_0_energy">     -7.99389956 </i>
   </energy>
  </scstep>
  <scstep>
   <time name="dav">   11.64   11.65</time>
   <time name="total">   12.63   12.64</time>
   <energy>
    <i name="e_fr_energy">     -7.99501691 </i>
    <i name="e_wo_entrp">     -7.99274576 </i>
    <i name="e_0_energy">     -7.99388134 </i>
   </energy>
  </scstep>
  <scstep>
   <time name="dav">   11.26   11.28</time>
   <time name="total">   12.25   12.28</time>
   <energy>
    <i name="e_fr_energy">     -7.99501509 </i>
    <i name="e_wo_entrp">     -7.99274415 </i>
    <i name="e_0_energy">     -7.99387962 </i>
   </energy>
  </scstep>
  <scstep>
   <time name="dav">    7.55    7.55</time>
   <time name="total">    7.68    7.69</time>
   <energy>
    <i name="alphaZ">     81.11281717 </i>
    <i name="ewald">  -1317.10563401 </i>
    <i name="hartreedc">  -2461.55988565 </i>
    <i name="XCdc">     56.22173064 </i>
    <i name="pawpsdc">   3760.86554569 </i>
    <i name="pawaedc">  -3674.08153219 </i>
    <i name="eentropy">     -0.00227090 </i>
    <i name="bandstr">   -157.76967821 </i>
    <i name="atom">   3704.32389242 </i>
    <i name="e_fr_energy">     -7.99501502 </i>
    <i name="e_wo_entrp">     -7.99274413 </i>
    <i name="e_0_energy">     -7.99387958 </i>
   </energy>
  </scstep>
  <dipole>
   <v name="dipole">      0.00000000       0.00000000       0.14090888 </v>
   <i name="Tr[quadrupol]">    -37.42608820 </i>
   <i name="Echarged">      0.00000000 </i>
   <i name="Edipol_quadrupol">      0.00000000 </i>
   <i name="Eion">      0.00000000 </i>
  </dipole>
  <structure>
   <crystal>
    <varray name="basis" >
     <v>       4.09820000       0.00000000       0.00000000 </v>
     <v>       0.00000000       2.89786501       0.00000000 </v>
     <v>       0.00000000       0.00000000      19.34679752 </v>
    </varray>
    <i name="volume">    229.76315518 </i>
    <varray name="rec_basis" >
     <v>       0.24400957       0.00000000       0.00000000 </v>
     <v>       0.00000000       0.34508164       0.00000000 </v>
     <v>       0.00000000       0.00000000       0.05168814 </v>
    </varray>
   </crystal>
   <varray name="positions" >
    <v>       0.04910000       0.44893251       0.50000000 </v>
    <v>      -0.00000034       0.00000048       0.97300141 </v>
    <v>       0.04909401       0.44892918       0.37379508 </v>
    <v>      -0.00000013       0.00000023       0.82271131 </v>
   </varray>
  </structure>
  <varray name="forces" >
   <v>       0.00170334       0.00016838       1.83235659 </v>
   <v>       0.00019608      -0.00014284      -0.94914060 </v>
   <v>      -0.00222485       0.00017672      -1.81500668 </v>
   <v>       0.00032543      -0.00020225       0.93179069 </v>
  </varray>
  <varray name="stress" >
   <v>     -29.48218955       0.00538390       0.00133688 </v>
   <v>       0.00538392     -73.14941140       0.00316171 </v>
   <v>       0.00133690       0.00316171       9.70256031 </v>
  </varray>
  <energy>
   <i name="e_fr_energy">     -8.97675346 </i>
   <i name="e_wo_entrp">     -8.97561801 </i>
   <i name="e_0_energy">     -0.00227090 </i>
  </energy>
  <time name="totalsc">  110.53  110.74</time>
 </calculation>
 <calculation>
  <scstep>
   <time name="dav">   11.04   11.05</time>
   <time name="total">   12.00   12.04</time>
   <energy>
    <i name="alphaZ">     81.11281717 </i>
    <i name="ewald">  -1312.68721470 </i>
    <i name="hartreedc">  -2465.94197788 </i>
    <i name="XCdc">     56.23266836 </i>
    <i name="pawpsdc">   3760.84160756 </i>
    <i name="pawaedc">  -3674.05758033 </i>
    <i name="eentropy">     -0.00226502 </i>
    <i name="bandstr">   -157.81634972 </i>
    <i name="atom">   3704.32389242 </i>
    <i name="e_fr_energy">     -7.99440212 </i>
    <i name="e_wo_entrp">     -7.99213711 </i>
    <i name="e_0_energy">     -7.99326962 </i>
   </energy>
  </scstep>
  <scstep>
   <time name="dav">   11.30   11.32</time>
   <time name="total">   12.30   12.31</time>
   <energy>
    <i name="e_fr_energy">     -7.99458845 </i>
    <i name="e_wo_entrp">     -7.99232250 </i>
    <i name="e_0_energy">     -7.99345547 </i>
   </energy>
  </scstep>
  <scstep>
   <time name="dav">   11.29   11.30</time>
   <time name="total">   12.30   12.32</time>
   <energy>
    <i name="e_fr_energy">     -7.99458317 </i>
    <i name="e_wo_entrp">     -7.99231854 </i>
    <i name="e_0_energy">     -7.99345085 </i>
   </energy>
  </scstep>
  <scstep>
   <time name="dav">   11.44   11.45</time>
   <time name="total">   12.43   12.45</time>
   <energy>
    <i name="e_fr_energy">     -7.99458451 </i>
    <i name="e_wo_entrp">     -7.99231702 </i>
    <i name="e_0_energy">     -7.99345076 </i>
   </energy>
  </scstep>
  <scstep>
   <time name="dav">    9.45    9.46</time>
   <time name="total">   10.44   10.45</time>
   <energy>
    <i name="e_fr_energy">     -7.99458275 </i>
    <i name="e_wo_entrp">     -7.99231788 </i>
    <i name="e_0_energy">     -7.99345032 </i>
   </energy>
  </scstep>
  <scstep>
   <time name="dav">    7.62    7.63</time>
   <time name="total">    7.76    7.77</time>
   <energy>
    <i name="alphaZ">     81.11281717 </i>
    <i name="ewald">  -1312.68721470 </i>
    <i name="hartreedc">  -2465.88700220 </i>
    <i name="XCdc">     56.23048815 </i>
    <i name="pawpsdc">   3762.70337296 </i>
    <i name="pawaedc">  -3675.94116129 </i>
    <i name="eentropy">     -0.00226561 </i>
    <i name="bandstr">   -157.84750920 </i>
    <i name="atom">   3704.32389242 </i>
    <i name="e_fr_energy">     -7.99458228 </i>
    <i name="e_wo_entrp">     -7.99231667 </i>
    <i name="e_0_energy">     -7.99344948 </i>
   </energy>
  </scstep>
  <dipole>
   <v name="dipole">      0.00000000       0.00000000       0.14070836 </v>
   <i name="Tr[quadrupol]">    -37.42582158 </i>
   <i name="Echarged">      0.00000000 </i>
   <i name="Edipol_quadrupol">      0.00000000 </i>
   <i name="Eion">      0.00000000 </i>
  </dipole>
  <structure>
   <crystal>
    <varray name="basis" >
     <v>       4.09820000       0.00000000       0.00000000 </v>
     <v>       0.00000000       2.89786501       0.00000000 </v>
     <v>       0.00000000       0.00000000      19.34679752 </v>
    </varray>
    <i name="volume">    229.76315518 </i>
    <varray name="rec_basis" >
     <v>       0.24400957       0.00000000       0.00000000 </v>
     <v>       0.00000000       0.34508164       0.00000000 </v>
     <v>       0.00000000       0.00000000       0.05168814 </v>
    </varray>
   </crystal>
   <varray name="positions" >
    <v>       0.04910000       0.44893251       0.50000000 </v>
    <v>      -0.00000034       0.00000048       0.97284406 </v>
    <v>       0.04909405       0.44892920       0.37395244 </v>
    <v>      -0.00000013       0.00000023       0.82286878 </v>
   </varray>
  </structure>
  <varray name="forces" >
   <v>       0.00178624       0.00030664       1.88341070 </v>
   <v>       0.00027944      -0.00000523      -0.94221444 </v>
   <v>      -0.00247423      -0.00023731      -1.86668829 </v>
   <v>       0.00040854      -0.00006410       0.92549204 </v>
  </varray>
  <varray name="stress" >
   <v>     -29.47015300       0.00688007       0.00017794 </v>
   <v>       0.00688008     -73.06956415      -0.00291733 </v>
   <v>       0.00017796      -0.00291733      10.66322350 </v>
  </varray>
  <energy>
   <i name="e_fr_energy">     -8.97688436 </i>
   <i name="e_wo_entrp">     -8.97575155 </i>
   <i name="e_0_energy">     -0.00226561 </i>
  </energy>
  <time name="totalsc">   83.82   83.98</time>
 </calculation>
 <calculation>
  <scstep>
   <time name="dav">   11.16   11.17</time>
   <time name="total">   12.21   12.25</time>
   <energy>
    <i name="alphaZ">     81.11281717 </i>
    <i name="ewald">  -1326.21841596 </i>
    <i name="hartreedc">  -2452.74576363 </i>
    <i name="XCdc">     56.18260795 </i>
    <i name="pawpsdc">   3762.69302094 </i>
    <i name="pawaedc">  -3675.93066370 </i>
    <i name="eentropy">     -0.00231450 </i>
    <i name="bandstr">   -157.50119663 </i>
    <i name="atom">   3704.32389242 </i>
    <i name="e_fr_energy">     -8.08601594 </i>
    <i name="e_wo_entrp">     -8.08370144 </i>
    <i name="e_0_energy">     -8.08485869 </i>
   </energy>
  </scstep>
  <scstep>
   <time name="dav">   11.48   11.49</time>
   <time name="total">   12.48   12.49</time>
   <energy>
    <i name="e_fr_energy">     -8.10613638 </i>
    <i name="e_wo_entrp">     -8.10398524 </i>
    <i name="e_0_energy">     -8.10506081 </i>
   </energy>
  </scstep>
  <scstep>
   <time name="dav">   11.49   11.51</time>
   <time name="total">   12.49   12.51</time>
   <energy>
    <i name="e_fr_energy">     -8.10143400 </i>
    <i name="e_wo_entrp">     -8.09900412 </i>
    <i name="e_0_energy">     -8.10021906 </i>
   </energy>
  </scstep>
  <scstep>
   <time name="dav">   11.51   11.52</time>
   <time name="total">   12.52   12.54</time>
   <energy>
    <i name="e_fr_energy">     -8.10101606 </i>
    <i name="e_wo_entrp">     -8.09821531 </i>
    <i name="e_0_energy">     -8.09961568 </i>
   </energy>
  </scstep>
  <scstep>
   <time name="dav">   11.68   11.69</time>
   <time name="total">   12.73   12.74</time>
   <energy>
    <i name="e_fr_energy">     -8.10077049 </i>
    <i name="e_wo_entrp">     -8.09815793 </i>
    <i name="e_0_energy">     -8.09946421 </i>
   </energy>
  </scstep>
  <scstep>
   <time name="dav">   11.48   11.49</time>
   <time name="total">   12.48   12.50</time>
   <energy>
    <i name="e_fr_energy">     -8.10072436 </i>
    <i name="e_wo_entrp">     -8.09807953 </i>
    <i name="e_0_energy">     -8.09940195 </i>
   </energy>
  </scstep>
  <scstep>
   <time name="dav">   11.73   11.74</time>
   <time name="total">   12.73   12.75</time>
   <energy>
    <i name="e_fr_energy">     -8.10071483 </i>
    <i name="e_wo_entrp">     -8.09807229 </i>
    <i name="e_0_energy">     -8.09939356 </i>
   </energy>
  </scstep>
  <scstep>
   <time name="dav">   11.48   11.49</time>
   <time name="total">   11.60   11.62</time>
   <energy>
    <i name="alphaZ">     81.11281717 </i>
    <i name="ewald">  -1326.21841596 </i>
    <i name="hartreedc">  -2453.01765495 </i>
    <i name="XCdc">     56.18650585 </i>
    <i name="pawpsdc">   3749.11677499 </i>
    <i name="pawaedc">  -3662.24133275 </i>
    <i name="eentropy">     -0.00263719 </i>
    <i name="bandstr">   -157.36066370 </i>
    <i name="atom">   3704.32389242 </i>
    <i name="e_fr_energy">     -8.10071411 </i>
    <i name="e_wo_entrp">     -8.09807692 </i>
    <i name="e_0_energy">     -8.09939552 </i>
   </energy>
  </scstep>
  <dipole>
   <v name="dipole">      0.00000000       0.00000000       0.11655899 </v>
   <i name="Tr[quadrupol]">    -37.43464863 </i>
   <i name="Echarged">      0.00000000 </i>
   <i name="Edipol_quadrupol">      0.00000000 </i>
   <i name="Eion">      0.00000000 </i>
  </dipole>
  <structure>
   <crystal>
    <varray name="basis" >
     <v>       4.09820000       0.00000000       0.00000000 </v>
     <v>       0.00000000       2.89786501       0.00000000 </v>
     <v>       0.00000000       0.00000000      19.34679752 </v>
    </varray>
    <i name="volume">    229.76315518 </i>
    <varray name="rec_basis" >
     <v>       0.24400957       0.00000000       0.00000000 </v>
     <v>       0.00000000       0.34508164       0.00000000 </v>
     <v>       0.00000000       0.00000000       0.05168814 </v>
    </varray>
   </crystal>
   <varray name="positions" >
    <v>       0.04910000       0.44893251       0.50000000 </v>
    <v>       0.00000125       0.00000044       0.97179987 </v>
    <v>       0.04907993       0.44892728       0.37160811 </v>
    <v>       0.00000219      -0.00000029       0.82389272 </v>
   </varray>
  </structure>
  <varray name="forces" >
   <v>       0.00070527       0.00009428       1.20519105 </v>
   <v>      -0.00084089      -0.00021956      -0.90387284 </v>
   <v>       0.00085525       0.00039569      -1.18667906 </v>
   <v>      -0.00071963      -0.00027041       0.88536085 </v>
  </varray>
  <varray name="stress" >
   <v>     -29.63569767       0.00924699       0.00652023 </v>
   <v>       0.00924699     -73.33660191       0.00382049 </v>
   <v>       0.00652017       0.00382051       0.60106663 </v>
  </varray>
  <energy>
   <i name="e_fr_energy">     -9.08448167 </i>
   <i name="e_wo_entrp">     -9.08316307 </i>
   <i name="e_0_energy">     -0.00263719 </i>
  </energy>
  <time name="totalsc">  115.80  115.97</time>
 </calculation>
[...]
       <r>     3.6222     1.0003    26.2202 </r>
       <r>     3.6690     1.2668    26.2796 </r>
       <r>     3.7159     1.3648    26.3435 </r>
       <r>     3.7628     1.3951    26.4089 </r>
       <r>     3.8096     1.3757    26.4733 </r>
       <r>     3.8565     1.3742    26.5377 </r>
       <r>     3.9033     1.2480    26.5962 </r>
       <r>     3.9502     1.1942    26.6521 </r>
       <r>     3.9970     1.2144    26.7090 </r>
       <r>     4.0439     1.0970    26.7604 </r>
       <r>     4.0907     0.9767    26.8062 </r>
       <r>     4.1376     0.8872    26.8478 </r>
       <r>     4.1844     1.0975    26.8992 </r>
       <r>     4.2313     1.1823    26.9546 </r>
       <r>     4.2781     0.9769    27.0004 </r>
       <r>     4.3250     0.8899    27.0420 </r>
       <r>     4.3718     0.8683    27.0827 </r>
       <r>     4.4187     0.7796    27.1193 </r>
       <r>     4.4655     0.7800    27.1558 </r>
       <r>     4.5124     0.9171    27.1988 </r>
       <r>     4.5592     0.9643    27.2440 </r>
       <r>     4.6061     1.2058    27.3004 </r>
       <r>     4.6530     1.2287    27.3580 </r>
       <r>     4.6998     0.7502    27.3932 </r>
       <r>     4.7467     0.5544    27.4191 </r>
       <r>     4.7935     0.9017    27.4614 </r>
       <r>     4.8404     1.0826    27.5121 </r>
       <r>     4.8872     0.9645    27.5573 </r>
       <r>     4.9341     0.8766    27.5984 </r>
       <r>     4.9809     0.9828    27.6444 </r>
       <r>     5.0278     0.8138    27.6825 </r>
       <r>     5.0746     0.7916    27.7196 </r>
       <r>     5.1215     0.5404    27.7450 </r>
       <r>     5.1683     0.4433    27.7657 </r>
       <r>     5.2152     0.7270    27.7998 </r>
       <r>     5.2620     0.4430    27.8205 </r>
       <r>     5.3089     0.2112    27.8304 </r>
       <r>     5.3557     0.3726    27.8479 </r>
       <r>     5.4026     0.3499    27.8643 </r>
       <r>     5.4495     0.2127    27.8742 </r>
       <r>     5.4963     0.2472    27.8858 </r>
       <r>     5.5432     0.2487    27.8975 </r>
       <r>     5.5900     0.1293    27.9035 </r>
       <r>     5.6369     0.1188    27.9091 </r>
       <r>     5.6837     0.0444    27.9112 </r>
       <r>     5.7306     0.0041    27.9114 </r>
       <r>     5.7774     0.0109    27.9119 </r>
       <r>     5.8243     0.0555    27.9145 </r>
       <r>     5.8711     0.1326    27.9207 </r>
       <r>     5.9180     0.2638    27.9331 </r>
       <r>     5.9648     0.2394    27.9443 </r>
       <r>     6.0117     0.1823    27.9528 </r>
       <r>     6.0585     0.2124    27.9628 </r>
       <r>     6.1054     0.2126    27.9727 </r>
       <r>     6.1522     0.1007    27.9774 </r>
       <r>     6.1991     0.0473    27.9797 </r>
       <r>     6.2460     0.0573    27.9823 </r>
       <r>     6.2928     0.0204    27.9833 </r>
       <r>     6.3397     0.0016    27.9834 </r>
       <r>     6.3865     0.0000    27.9834 </r>
       <r>     6.4334     0.0000    27.9834 </r>
       <r>     6.4802     0.0000    27.9834 </r>
       <r>     6.5271     0.0005    27.9834 </r>
       <r>     6.5739     0.0144    27.9841 </r>
       <r>     6.6208     0.0880    27.9882 </r>
       <r>     6.6676     0.1396    27.9947 </r>
       <r>     6.7145     0.0869    27.9988 </r>
       <r>     6.7613     0.0235    27.9999 </r>
       <r>     6.8082     0.0018    28.0000 </r>
       <r>     6.8550     0.0000    28.0000 </r>
       <r>     6.9019     0.0000    28.0000 </r>
       <r>     6.9487     0.0000    28.0000 </r>
       <r>     6.9956     0.0000    28.0000 </r>
       <r>     7.0425     0.0000    28.0000 </r>
       <r>     7.0893     0.0000    28.0000 </r>
       <r>     7.1362     0.0000    28.0000 </r>
       <r>     7.1830     0.0000    28.0000 </r>
       <r>     7.2299     0.0000    28.0000 </r>
       <r>     7.2767     0.0000    28.0000 </r>
       <r>     7.3236     0.0000    28.0000 </r>
      </set>
      <set comment="spin 2">
       <r>    -6.7323     0.0000     0.0000 </r>
       <r>    -6.6854     0.0000     0.0000 </r>
       <r>    -6.6386     0.0000     0.0000 </r>
       <r>    -6.5917     0.0000     0.0000 </r>
       <r>    -6.5449     0.0000     0.0000 </r>
       <r>    -6.4980     0.0000     0.0000 </r>
       <r>    -6.4512     0.0000     0.0000 </r>
       <r>    -6.4043     0.0000     0.0000 </r>
       <r>    -6.3575     0.0000     0.0000 </r>
       <r>    -6.3106     0.0000     0.0000 </r>
       <r>    -6.2638     0.0000     0.0000 </r>
       <r>    -6.2169     0.0000     0.0000 </r>
       <r>    -6.1701     0.0035     0.0002 </r>
       <r>    -6.1232     0.0604     0.0030 </r>
       <r>    -6.0764     0.2815     0.0162 </r>
       <r>    -6.0295     0.6041     0.0445 </r>
       <r>    -5.9826     0.9593     0.0894 </r>
       <r>    -5.9358     0.9897     0.1358 </r>
       <r>    -5.8889     0.9457     0.1801 </r>
       <r>    -5.8421     1.0701     0.2303 </r>
       <r>    -5.7952     1.3628     0.2941 </r>
       <r>    -5.7484     1.4264     0.3609 </r>
       <r>    -5.7015     0.8601     0.4012 </r>
       <r>    -5.6547     0.5920     0.4290 </r>
       <r>    -5.6078     0.6593     0.4599 </r>
       <r>    -5.5610     0.8666     0.5005 </r>
       <r>    -5.5141     0.9552     0.5452 </r>
       <r>    -5.4673     0.9009     0.5874 </r>
       <r>    -5.4204     0.7622     0.6231 </r>
       <r>    -5.3736     0.8833     0.6645 </r>
       <r>    -5.3267     1.9888     0.7577 </r>
       <r>    -5.2799     4.7201     0.9789 </r>
       <r>    -5.2330     7.2430     1.3182 </r>
       <r>    -5.1861     8.4620     1.7147 </r>
       <r>    -5.1393     9.2430     2.1477 </r>
       <r>    -5.0924     9.0984     2.5740 </r>
       <r>    -5.0456     5.9628     2.8534 </r>
       <r>    -4.9987     3.4748     3.0162 </r>
       <r>    -4.9519     3.7865     3.1936 </r>
       <r>    -4.9050     6.0127     3.4753 </r>
       <r>    -4.8582     4.9140     3.7056 </r>
       <r>    -4.8113     2.8318     3.8382 </r>
       <r>    -4.7645     1.1668     3.8929 </r>
       <r>    -4.7176     1.1335     3.9460 </r>
       <r>    -4.6708     3.0820     4.0904 </r>
       <r>    -4.6239     3.3063     4.2453 </r>
       <r>    -4.5771     3.3212     4.4009 </r>
       <r>    -4.5302     3.7305     4.5757 </r>
       <r>    -4.4834     2.5829     4.6967 </r>
       <r>    -4.4365     0.8193     4.7351 </r>
       <r>    -4.3897     0.5755     4.7621 </r>
       <r>    -4.3428     2.0367     4.8575 </r>
       <r>    -4.2959     3.6759     5.0297 </r>
       <r>    -4.2491     4.3949     5.2357 </r>
       <r>    -4.2022     5.1917     5.4789 </r>
       <r>    -4.1554     6.5382     5.7852 </r>
       <r>    -4.1085     7.9575     6.1581 </r>
       <r>    -4.0617     7.7905     6.5231 </r>
       <r>    -4.0148     7.0954     6.8555 </r>
       <r>    -3.9680     8.7580     7.2658 </r>
       <r>    -3.9211     8.3304     7.6561 </r>
       <r>    -3.8743     7.4749     8.0064 </r>
       <r>    -3.8274     8.1762     8.3894 </r>
       <r>    -3.7806     7.8045     8.7551 </r>
       <r>    -3.7337     6.6155     9.0651 </r>
       <r>    -3.6869     5.0766     9.3029 </r>
       <r>    -3.6400     5.1628     9.5448 </r>
       <r>    -3.5932     8.9301     9.9632 </r>
       <r>    -3.5463    10.0274    10.4330 </r>
       <r>    -3.4994     7.0454    10.7631 </r>
       <r>    -3.4526     7.4353    11.1115 </r>
       <r>    -3.4057     8.2581    11.4984 </r>
       <r>    -3.3589     8.1102    11.8784 </r>
       <r>    -3.3120     6.6455    12.1897 </r>
       <r>    -3.2652     5.7093    12.4572 </r>
       <r>    -3.2183     6.5628    12.7647 </r>
       <r>    -3.1715     6.6383    13.0758 </r>
       <r>    -3.1246     4.7693    13.2992 </r>
       <r>    -3.0778     5.1675    13.5413 </r>
       <r>    -3.0309     8.0870    13.9202 </r>
       <r>    -2.9841     8.8558    14.3351 </r>
       <r>    -2.9372     8.0599    14.7128 </r>
       <r>    -2.8904     8.7645    15.1234 </r>
       <r>    -2.8435    12.0746    15.6891 </r>
       <r>    -2.7967    13.1754    16.3065 </r>
       <r>    -2.7498    14.0137    16.9630 </r>
       <r>    -2.7029    18.1705    17.8144 </r>
       <r>    -2.6561    18.2833    18.6710 </r>
       <r>    -2.6092    13.1143    19.2854 </r>
       <r>    -2.5624     8.3628    19.6773 </r>
       <r>    -2.5155     6.7808    19.9950 </r>
       <r>    -2.4687     4.4129    20.2017 </r>
       <r>    -2.4218     2.0782    20.2991 </r>
       <r>    -2.3750     2.7552    20.4282 </r>
       <r>    -2.3281     3.3559    20.5854 </r>
       <r>    -2.2813     3.4739    20.7482 </r>
       <r>    -2.2344     2.0959    20.8464 </r>
       <r>    -2.1876     0.6128    20.8751 </r>
       <r>    -2.1407     0.1306    20.8812 </r>
       <r>    -2.0939     0.2062    20.8909 </r>
       <r>    -2.0470     1.0647    20.9407 </r>
       <r>    -2.0002     2.2209    21.0448 </r>
       <r>    -1.9533     1.5812    21.1189 </r>
       <r>    -1.9064     1.7540    21.2011 </r>
       <r>    -1.8596     2.8490    21.3346 </r>
       <r>    -1.8127     2.0900    21.4325 </r>
       <r>    -1.7659     1.1024    21.4841 </r>
       <r>    -1.7190     0.8438    21.5237 </r>
       <r>    -1.6722     0.9734    21.5693 </r>
       <r>    -1.6253     0.8983    21.6114 </r>
       <r>    -1.5785     0.9757    21.6571 </r>
       <r>    -1.5316     0.9664    21.7023 </r>
       <r>    -1.4848     0.8707    21.7431 </r>
       <r>    -1.4379     1.0025    21.7901 </r>
       <r>    -1.3911     1.1004    21.8417 </r>
       <r>    -1.3442     0.9241    21.8850 </r>
       <r>    -1.2974     0.8671    21.9256 </r>
       <r>    -1.2505     1.0499    21.9748 </r>
       <r>    -1.2037     1.0507    22.0240 </r>
       <r>    -1.1568     1.2029    22.0804 </r>
       <r>    -1.1099     1.1999    22.1366 </r>
       <r>    -1.0631     1.1408    22.1900 </r>
       <r>    -1.0162     1.0831    22.2408 </r>
       <r>    -0.9694     0.9715    22.2863 </r>
       <r>    -0.9225     0.9989    22.3331 </r>
       <r>    -0.8757     1.0871    22.3840 </r>
       <r>    -0.8288     1.2363    22.4420 </r>
       <r>    -0.7820     1.2370    22.4999 </r>
       <r>    -0.7351     1.0235    22.5479 </r>
       <r>    -0.6883     0.9143    22.5907 </r>
       <r>    -0.6414     0.7761    22.6271 </r>
       <r>    -0.5946     0.7430    22.6619 </r>
       <r>    -0.5477     0.6248    22.6912 </r>
       <r>    -0.5009     0.6484    22.7215 </r>
       <r>    -0.4540     0.8813    22.7628 </r>
       <r>    -0.4072     0.9252    22.8062 </r>
       <r>    -0.3603     0.8957    22.8481 </r>
       <r>    -0.3134     0.6925    22.8806 </r>
       <r>    -0.2666     0.4636    22.9023 </r>
       <r>    -0.2197     0.5612    22.9286 </r>
       <r>    -0.1729     0.5335    22.9536 </r>
       <r>    -0.1260     0.4509    22.9747 </r>
       <r>    -0.0792     0.6804    23.0066 </r>
       <r>    -0.0323     0.7313    23.0409 </r>
       <r>     0.0145     0.5071    23.0646 </r>
       <r>     0.0614     0.2574    23.0767 </r>
       <r>     0.1082     0.2114    23.0866 </r>
       <r>     0.1551     0.2495    23.0983 </r>
       <r>     0.2019     0.4115    23.1176 </r>
       <r>     0.2488     0.5694    23.1442 </r>
       <r>     0.2956     0.4941    23.1674 </r>
       <r>     0.3425     0.5259    23.1920 </r>
       <r>     0.3893     0.8837    23.2334 </r>
       <r>     0.4362     1.0375    23.2820 </r>
       <r>     0.4830     0.9400    23.3261 </r>
       <r>     0.5299     0.7020    23.3590 </r>
       <r>     0.5768     0.4316    23.3792 </r>
       <r>     0.6236     0.5247    23.4038 </r>
       <r>     0.6705     0.4582    23.4253 </r>
       <r>     0.7173     0.5500    23.4510 </r>
       <r>     0.7642     0.7791    23.4875 </r>
       <r>     0.8110     0.4557    23.5089 </r>
       <r>     0.8579     0.2657    23.5213 </r>
       <r>     0.9047     0.3808    23.5392 </r>
       <r>     0.9516     0.4311    23.5594 </r>
       <r>     0.9984     0.5761    23.5864 </r>
       <r>     1.0453     0.7498    23.6215 </r>
       <r>     1.0921     1.0087    23.6688 </r>
       <r>     1.1390     1.5070    23.7394 </r>
       <r>     1.1858     1.3645    23.8033 </r>
       <r>     1.2327     0.8567    23.8434 </r>
       <r>     1.2795     0.4722    23.8656 </r>
       <r>     1.3264     0.5343    23.8906 </r>
       <r>     1.3733     0.8687    23.9313 </r>
       <r>     1.4201     0.7225    23.9651 </r>
       <r>     1.4670     0.4930    23.9882 </r>
       <r>     1.5138     0.5344    24.0133 </r>
       <r>     1.5607     0.6613    24.0443 </r>
       <r>     1.6075     0.8263    24.0830 </r>
       <r>     1.6544     1.1003    24.1345 </r>
       <r>     1.7012     1.3071    24.1958 </r>
       <r>     1.7481     1.1907    24.2516 </r>
       <r>     1.7949     1.0344    24.3000 </r>
       <r>     1.8418     1.1699    24.3548 </r>
       <r>     1.8886     1.0541    24.4042 </r>
       <r>     1.9355     1.0256    24.4523 </r>
       <r>     1.9823     0.8408    24.4917 </r>
       <r>     2.0292     0.7957    24.5290 </r>
       <r>     2.0760     0.9855    24.5751 </r>
       <r>     2.1229     0.8048    24.6128 </r>
       <r>     2.1698     1.1925    24.6687 </r>
       <r>     2.2166     1.6206    24.7446 </r>
       <r>     2.2635     1.5041    24.8151 </r>
       <r>     2.3103     1.4101    24.8812 </r>
       <r>     2.3572     1.3829    24.9460 </r>
       <r>     2.4040     1.3511    25.0093 </r>
       <r>     2.4509     1.0474    25.0583 </r>
       <r>     2.4977     0.8851    25.0998 </r>
       <r>     2.5446     0.9222    25.1430 </r>
       <r>     2.5914     0.9970    25.1897 </r>
       <r>     2.6383     1.0426    25.2386 </r>
       <r>     2.6851     1.1726    25.2935 </r>
       <r>     2.7320     1.4499    25.3615 </r>
       <r>     2.7788     1.3098    25.4228 </r>
       <r>     2.8257     0.6797    25.4547 </r>
       <r>     2.8725     0.3886    25.4729 </r>
       <r>     2.9194     0.7946    25.5101 </r>
       <r>     2.9663     1.0990    25.5616 </r>
       <r>     3.0131     1.2447    25.6199 </r>
       <r>     3.0600     1.5369    25.6919 </r>
       <r>     3.1068     1.1604    25.7463 </r>
       <r>     3.1537     0.8500    25.7861 </r>
       <r>     3.2005     0.8878    25.8277 </r>
       <r>     3.2474     0.9664    25.8730 </r>
       <r>     3.2942     1.3055    25.9342 </r>
       <r>     3.3411     1.0685    25.9842 </r>
       <r>     3.3879     0.8070    26.0220 </r>
       <r>     3.4348     0.6971    26.0547 </r>
       <r>     3.4816     0.7480    26.0897 </r>
       <r>     3.5285     0.9255    26.1331 </r>
       <r>     3.5753     0.8590    26.1733 </r>
       <r>     3.6222     1.0003    26.2202 </r>
       <r>     3.6690     1.2668    26.2796 </r>
       <r>     3.7159     1.3648    26.3435 </r>
       <r>     3.7628     1.3951    26.4089 </r>
       <r>     3.8096     1.3757    26.4733 </r>
       <r>     3.8565     1.3742    26.5377 </r>
       <r>     3.9033     1.2480    26.5962 </r>
       <r>     3.9502     1.1942    26.6521 </r>
       <r>     3.9970     1.2144    26.7090 </r>
       <r>     4.0439     1.0970    26.7604 </r>
       <r>     4.0907     0.9767    26.8062 </r>
       <r>     4.1376     0.8872    26.8478 </r>
       <r>     4.1844     1.0975    26.8992 </r>
       <r>     4.2313     1.1823    26.9546 </r>
       <r>     4.2781     0.9769    27.0004 </r>
       <r>     4.3250     0.8899    27.0420 </r>
       <r>     4.3718     0.8683    27.0827 </r>
       <r>     4.4187     0.7796    27.1193 </r>
       <r>     4.4655     0.7800    27.1558 </r>
       <r>     4.5124     0.9171    27.1988 </r>
       <r>     4.5592     0.9643    27.2440 </r>
       <r>     4.6061     1.2058    27.3004 </r>
       <r>     4.6530     1.2287    27.3580 </r>
       <r>     4.6998     0.7502    27.3932 </r>
       <r>     4.7467     0.5544    27.4191 </r>
       <r>     4.7935     0.9017    27.4614 </r>
       <r>     4.8404     1.0826    27.5121 </r>
       <r>     4.8872     0.9645    27.5573 </r>
       <r>     4.9341     0.8766    27.5984 </r>
       <r>     4.9809     0.9828    27.6444 </r>
       <r>     5.0278     0.8138    27.6825 </r>
       <r>     5.0746     0.7916    27.7196 </r>
       <r>     5.1215     0.5404    27.7450 </r>
       <r>     5.1683     0.4433    27.7657 </r>
       <r>     5.2152     0.7270    27.7998 </r>
       <r>     5.2620     0.4430    27.8205 </r>
       <r>     5.3089     0.2112    27.8304 </r>
       <r>     5.3557     0.3726    27.8479 </r>
       <r>     5.4026     0.3499    27.8643 </r>
       <r>     5.4495     0.2127    27.8742 </r>
       <r>     5.4963     0.2472    27.8858 </r>
       <r>     5.5432     0.2487    27.8975 </r>
       <r>     5.5900     0.1293    27.9035 </r>
       <r>     5.6369     0.1188    27.9091 </r>
       <r>     5.6837     0.0444    27.9112 </r>
       <r>     5.7306     0.0041    27.9114 </r>
       <r>     5.7774     0.0109    27.9119 </r>
       <r>     5.8243     0.0555    27.9145 </r>
       <r>     5.8711     0.1326    27.9207 </r>
       <r>     5.9180     0.2638    27.9331 </r>
       <r>     5.9648     0.2394    27.9443 </r>
       <r>     6.0117     0.1823    27.9528 </r>
       <r>     6.0585     0.2124    27.9628 </r>
       <r>     6.1054     0.2126    27.9727 </r>
       <r>     6.1522     0.1007    27.9774 </r>
       <r>     6.1991     0.0473    27.9797 </r>
       <r>     6.2460     0.0573    27.9823 </r>
       <r>     6.2928     0.0204    27.9833 </r>
       <r>     6.3397     0.0016    27.9834 </r>
       <r>     6.3865     0.0000    27.9834 </r>
       <r>     6.4334     0.0000    27.9834 </r>
       <r>     6.4802     0.0000    27.9834 </r>
       <r>     6.5271     0.0005    27.9834 </r>
       <r>     6.5739     0.0144    27.9841 </r>
       <r>     6.6208     0.0880    27.9882 </r>
       <r>     6.6676     0.1396    27.9947 </r>
       <r>     6.7145     0.0869    27.9988 </r>
       <r>     6.7613     0.0235    27.9999 </r>
       <r>     6.8082     0.0018    28.0000 </r>
       <r>     6.8550     0.0000    28.0000 </r>
       <r>     6.9019     0.0000    28.0000 </r>
       <r>     6.9487     0.0000    28.0000 </r>
       <r>     6.9956     0.0000    28.0000 </r>
       <r>     7.0425     0.0000    28.0000 </r>
       <r>     7.0893     0.0000    28.0000 </r>
       <r>     7.1362     0.0000    28.0000 </r>
       <r>     7.1830     0.0000    28.0000 </r>
       <r>     7.2299     0.0000    28.0000 </r>
       <r>     7.2767     0.0000    28.0000 </r>
       <r>     7.3236     0.0000    28.0000 </r>
      </set>
     </set>
    </array>
   </total>
  </dos>
 </calculation>
 <structure name="finalpos" >
  <crystal>
   <varray name="basis" >
    <v>       4.09820000       0.00000000       0.00000000 </v>
    <v>       0.00000000       2.89786501       0.00000000 </v>
    <v>       0.00000000       0.00000000      19.34679752 </v>
   </varray>
   <i name="volume">    229.76315518 </i>
   <varray name="rec_basis" >
    <v>       0.24400957       0.00000000       0.00000000 </v>
    <v>       0.00000000       0.34508164       0.00000000 </v>
    <v>       0.00000000       0.00000000       0.05168814 </v>
   </varray>
  </crystal>
  <varray name="positions" >
   <v>       0.04910000       0.44893251       0.50000000 </v>
   <v>       0.00002044      -0.00000753       0.96514095 </v>
   <v>       0.04887496       0.44892122       0.36521985 </v>
   <v>       0.00003313      -0.00001581       0.83029367 </v>
  </varray>
  <varray name="selective"  type="logical" >
   <v type="logical" >  F  F  F </v>
   <v type="logical" >  T  T  T </v>
   <v type="logical" >  T  T  T </v>
   <v type="logical" >  T  T  T </v>
  </varray>
  <nose>
   <v>      -3.00000000       0.00000000       0.00010000       0.00010000 </v>
  </nose>
 </structure>
</modeling>
