Slab Fe 1x1 4Layers                     
           1
     4.098200    0.000000    0.000000
     0.000000    2.897865    0.000000
     0.000000    0.000000   19.346798
   Au
   4
Direct configuration=     1
   0.04910000  0.44893251  0.50000000
   0.00000000  0.00000000  0.94893251
   0.04910000  0.44893251  0.39786501
   0.00000000  0.00000000  0.84679752
Direct configuration=     2
   0.04910000  0.44893251  0.50000000
  -0.00000041  0.00000057  0.97747276
   0.04909289  0.44892856  0.36932354
  -0.00000016  0.00000027  0.81823675
Direct configuration=     3
   0.04910000  0.44893251  0.50000000
  -0.00000025  0.00000035  0.96672358
   0.04909557  0.44893005  0.38007317
  -0.00000010  0.00000017  0.82899365
Direct configuration=     4
   0.04910000  0.44893251  0.50000000
  -0.00000037  0.00000052  0.97489612
   0.04909354  0.44892892  0.37190029
  -0.00000014  0.00000025  0.82081524
Direct configuration=     5
   0.04910000  0.44893251  0.50000000
  -0.00000033  0.00000046  0.97208432
   0.04909424  0.44892931  0.37471221
  -0.00000013  0.00000022  0.82362906
Direct configuration=     6
   0.04910000  0.44893251  0.50000000
  -0.00000034  0.00000048  0.97300141
   0.04909401  0.44892918  0.37379508
  -0.00000013  0.00000023  0.82271131
Direct configuration=     7
   0.04910000  0.44893251  0.50000000
  -0.00000034  0.00000048  0.97284406
   0.04909405  0.44892920  0.37395244
  -0.00000013  0.00000023  0.82286878
Direct configuration=     8
   0.04910000  0.44893251  0.50000000
   0.00000125  0.00000044  0.97179987
   0.04907993  0.44892728  0.37160811
   0.00000219 -0.00000029  0.82389272
Direct configuration=     9
   0.04910000  0.44893251  0.50000000
   0.00000366  0.00000038  0.97021741
   0.04905854  0.44892436  0.36805531
   0.00000572 -0.00000107  0.82544451
Direct configuration=    10
   0.04910000  0.44893251  0.50000000
   0.00000848  0.00000025  0.96705250
   0.04901577  0.44891853  0.36094969
   0.00001277 -0.00000263  0.82854808
Direct configuration=    11
   0.04910000  0.44893251  0.50000000
   0.00000807  0.00000026  0.96732270
   0.04901942  0.44891903  0.36155631
   0.00001217 -0.00000250  0.82828312
Direct configuration=    12
   0.04910000  0.44893251  0.50000000
   0.00000929  0.00000070  0.96609484
   0.04899678  0.44891381  0.36206071
   0.00001477 -0.00000295  0.82947543
Direct configuration=    13
   0.04910000  0.44893251  0.50000000
   0.00001044  0.00000111  0.96493998
   0.04897549  0.44890890  0.36253511
   0.00001721 -0.00000337  0.83059687
Direct configuration=    14
   0.04910000  0.44893251  0.50000000
   0.00001367 -0.00000168  0.96500489
   0.04894302  0.44891288  0.36340222
   0.00002235 -0.00000739  0.83049894
Direct configuration=    15
   0.04910000  0.44893251  0.50000000
   0.00001788 -0.00000532  0.96508949
   0.04890070  0.44891806  0.36453237
   0.00002905 -0.00001263  0.83037131
Direct configuration=    16
   0.04910000  0.44893251  0.50000000
   0.00002630 -0.00001260  0.96525869
   0.04881607  0.44892843  0.36679268
   0.00004245 -0.00002310  0.83011605
Direct configuration=    17
   0.04910000  0.44893251  0.50000000
   0.00002016 -0.00000729  0.96513523
   0.04887783  0.44892087  0.36514339
   0.00003268 -0.00001546  0.83030231
Direct configuration=    18
   0.04910000  0.44893251  0.50000000
   0.00002044 -0.00000753  0.96514095
   0.04887496  0.44892122  0.36521985
   0.00003313 -0.00001581  0.83029367
