   4   4   0   0
  0.4017775E+02  0.2897865E-09  0.2897865E-09  0.2209829E-08  0.2500000E-15
  1.000000000000000E-004
  CAR 
 Slab Fe 1x1 4Layers                     
     10.11900035     -8.45400637  301      0.98692671      1.00000000
     -8.454  0.0000E+00  0.0000E+00  0.0000E+00  0.0000E+00
     -8.392  0.0000E+00  0.0000E+00  0.0000E+00  0.0000E+00
     -8.330  0.0000E+00  0.0000E+00  0.0000E+00  0.0000E+00
     -8.268  0.0000E+00  0.0000E+00  0.0000E+00  0.0000E+00
     -8.206  0.0000E+00  0.0000E+00  0.0000E+00  0.0000E+00
     -8.144  0.0000E+00  0.0000E+00  0.0000E+00  0.0000E+00
     -8.083  0.0000E+00  0.0000E+00  0.0000E+00  0.0000E+00
     -8.021  0.0000E+00  0.0000E+00  0.0000E+00  0.0000E+00
     -7.959  0.0000E+00  0.0000E+00  0.0000E+00  0.0000E+00
     -7.897  0.1987E-20  0.1987E-20  0.1230E-21  0.1230E-21
     -7.835  0.8593E-15  0.8593E-15  0.5320E-16  0.5320E-16
     -7.773  0.1746E-10  0.1746E-10  0.1081E-11  0.1081E-11
     -7.711  0.1862E-07  0.1862E-07  0.1154E-08  0.1154E-08
     -7.649  0.1179E-05  0.1179E-05  0.7417E-07  0.7417E-07
     -7.587  0.7483E-05  0.7483E-05  0.5374E-06  0.5374E-06
     -7.525  0.2672E-04  0.2672E-04  0.2191E-05  0.2191E-05
     -7.463  0.2510E-04  0.2510E-04  0.3746E-05  0.3746E-05
     -7.402  0.7960E-05  0.7960E-05  0.4238E-05  0.4238E-05
     -7.340  0.3355E-04  0.3355E-04  0.6315E-05  0.6315E-05
     -7.278  0.3960E-04  0.3960E-04  0.8767E-05  0.8767E-05
     -7.216  0.2604E-04  0.2604E-04  0.1038E-04  0.1038E-04
     -7.154  0.2409E-05  0.2409E-05  0.1053E-04  0.1053E-04
     -7.092  0.6332E-05  0.6332E-05  0.1092E-04  0.1092E-04
     -7.030  0.5509E-04  0.5509E-04  0.1433E-04  0.1433E-04
     -6.968  0.4357E-04  0.4357E-04  0.1703E-04  0.1703E-04
     -6.906  0.1741E-04  0.1741E-04  0.1811E-04  0.1811E-04
     -6.844  0.3377E-04  0.3377E-04  0.2020E-04  0.2020E-04
     -6.782  0.1583E-04  0.1583E-04  0.2118E-04  0.2118E-04
     -6.721  0.3254E-04  0.3254E-04  0.2319E-04  0.2319E-04
     -6.659  0.4814E-04  0.4814E-04  0.2617E-04  0.2617E-04
     -6.597  0.8011E-04  0.8011E-04  0.3113E-04  0.3113E-04
     -6.535  0.9163E-04  0.9163E-04  0.3680E-04  0.3680E-04
     -6.473  0.4696E-04  0.4696E-04  0.3971E-04  0.3971E-04
     -6.411  0.4017E-04  0.4017E-04  0.4220E-04  0.4220E-04
     -6.349  0.2991E-04  0.2991E-04  0.4405E-04  0.4405E-04
     -6.287  0.1689E-04  0.1689E-04  0.4510E-04  0.4510E-04
     -6.225  0.7580E-04  0.7580E-04  0.4979E-04  0.4979E-04
     -6.163  0.9783E-04  0.9783E-04  0.5585E-04  0.5585E-04
     -6.101  0.9555E-04  0.9555E-04  0.6176E-04  0.6176E-04
     -6.040  0.8249E-04  0.8249E-04  0.6687E-04  0.6687E-04
     -5.978  0.1805E-04  0.1805E-04  0.6799E-04  0.6799E-04
     -5.916  0.4245E-04  0.4245E-04  0.7061E-04  0.7061E-04
     -5.854  0.1095E-03  0.1095E-03  0.7739E-04  0.7739E-04
     -5.792  0.9680E-04  0.9680E-04  0.8339E-04  0.8339E-04
     -5.730  0.7814E-04  0.7814E-04  0.8823E-04  0.8823E-04
     -5.668  0.1922E-03  0.1922E-03  0.1001E-03  0.1001E-03
     -5.606  0.1881E-03  0.1881E-03  0.1118E-03  0.1118E-03
     -5.544  0.8229E-04  0.8229E-04  0.1169E-03  0.1169E-03
     -5.482  0.6061E-04  0.6061E-04  0.1206E-03  0.1206E-03
     -5.420  0.2159E-03  0.2159E-03  0.1340E-03  0.1340E-03
     -5.359  0.3402E-03  0.3402E-03  0.1550E-03  0.1550E-03
     -5.297  0.3432E-03  0.3432E-03  0.1763E-03  0.1763E-03
     -5.235  0.2883E-03  0.2883E-03  0.1941E-03  0.1941E-03
     -5.173  0.1923E-03  0.1923E-03  0.2060E-03  0.2060E-03
     -5.111  0.3645E-03  0.3645E-03  0.2286E-03  0.2286E-03
     -5.049  0.5274E-03  0.5274E-03  0.2613E-03  0.2613E-03
     -4.987  0.5130E-03  0.5130E-03  0.2930E-03  0.2930E-03
     -4.925  0.5609E-03  0.5609E-03  0.3278E-03  0.3278E-03
     -4.863  0.7211E-03  0.7211E-03  0.3724E-03  0.3724E-03
     -4.801  0.6210E-03  0.6210E-03  0.4108E-03  0.4108E-03
     -4.739  0.6542E-03  0.6542E-03  0.4513E-03  0.4513E-03
     -4.677  0.7954E-03  0.7954E-03  0.5006E-03  0.5006E-03
     -4.616  0.7930E-03  0.7930E-03  0.5497E-03  0.5497E-03
     -4.554  0.7721E-03  0.7721E-03  0.5975E-03  0.5975E-03
     -4.492  0.8551E-03  0.8551E-03  0.6504E-03  0.6504E-03
     -4.430  0.9406E-03  0.9406E-03  0.7087E-03  0.7087E-03
     -4.368  0.9132E-03  0.9132E-03  0.7652E-03  0.7652E-03
     -4.306  0.8038E-03  0.8038E-03  0.8150E-03  0.8150E-03
     -4.244  0.7773E-03  0.7773E-03  0.8631E-03  0.8631E-03
     -4.182  0.8580E-03  0.8580E-03  0.9162E-03  0.9162E-03
     -4.120  0.7673E-03  0.7673E-03  0.9637E-03  0.9637E-03
     -4.058  0.7005E-03  0.7005E-03  0.1007E-02  0.1007E-02
     -3.996  0.6847E-03  0.6847E-03  0.1049E-02  0.1049E-02
     -3.935  0.8154E-03  0.8154E-03  0.1100E-02  0.1100E-02
     -3.873  0.8934E-03  0.8934E-03  0.1155E-02  0.1155E-02
     -3.811  0.8621E-03  0.8621E-03  0.1209E-02  0.1209E-02
     -3.749  0.8684E-03  0.8684E-03  0.1262E-02  0.1262E-02
     -3.687  0.9839E-03  0.9839E-03  0.1323E-02  0.1323E-02
     -3.625  0.9933E-03  0.9933E-03  0.1385E-02  0.1385E-02
     -3.563  0.1114E-02  0.1114E-02  0.1454E-02  0.1454E-02
     -3.501  0.8322E-03  0.8322E-03  0.1505E-02  0.1505E-02
     -3.439  0.5801E-03  0.5801E-03  0.1541E-02  0.1541E-02
     -3.377  0.6351E-03  0.6351E-03  0.1581E-02  0.1581E-02
     -3.315  0.6047E-03  0.6047E-03  0.1618E-02  0.1618E-02
     -3.254  0.6142E-03  0.6142E-03  0.1656E-02  0.1656E-02
     -3.192  0.7898E-03  0.7898E-03  0.1705E-02  0.1705E-02
     -3.130  0.8554E-03  0.8554E-03  0.1758E-02  0.1758E-02
     -3.068  0.8181E-03  0.8181E-03  0.1808E-02  0.1808E-02
     -3.006  0.8394E-03  0.8394E-03  0.1860E-02  0.1860E-02
     -2.944  0.8393E-03  0.8393E-03  0.1912E-02  0.1912E-02
     -2.882  0.8523E-03  0.8523E-03  0.1965E-02  0.1965E-02
     -2.820  0.9042E-03  0.9042E-03  0.2021E-02  0.2021E-02
     -2.758  0.9410E-03  0.9410E-03  0.2079E-02  0.2079E-02
     -2.696  0.1102E-02  0.1102E-02  0.2148E-02  0.2148E-02
     -2.634  0.1042E-02  0.1042E-02  0.2212E-02  0.2212E-02
     -2.573  0.9853E-03  0.9853E-03  0.2273E-02  0.2273E-02
     -2.511  0.1104E-02  0.1104E-02  0.2341E-02  0.2341E-02
     -2.449  0.1050E-02  0.1050E-02  0.2406E-02  0.2406E-02
     -2.387  0.9044E-03  0.9044E-03  0.2462E-02  0.2462E-02
     -2.325  0.8470E-03  0.8470E-03  0.2515E-02  0.2515E-02
     -2.263  0.9564E-03  0.9564E-03  0.2574E-02  0.2574E-02
     -2.201  0.1019E-02  0.1019E-02  0.2637E-02  0.2637E-02
     -2.139  0.1035E-02  0.1035E-02  0.2701E-02  0.2701E-02
     -2.077  0.1032E-02  0.1032E-02  0.2765E-02  0.2765E-02
     -2.015  0.1015E-02  0.1015E-02  0.2828E-02  0.2828E-02
     -1.953  0.1100E-02  0.1100E-02  0.2896E-02  0.2896E-02
     -1.892  0.1014E-02  0.1014E-02  0.2959E-02  0.2959E-02
     -1.830  0.1151E-02  0.1151E-02  0.3030E-02  0.3030E-02
     -1.768  0.1194E-02  0.1194E-02  0.3104E-02  0.3104E-02
     -1.706  0.1115E-02  0.1115E-02  0.3173E-02  0.3173E-02
     -1.644  0.1447E-02  0.1447E-02  0.3263E-02  0.3263E-02
     -1.582  0.1447E-02  0.1447E-02  0.3352E-02  0.3352E-02
     -1.520  0.1116E-02  0.1116E-02  0.3421E-02  0.3421E-02
     -1.458  0.8855E-03  0.8855E-03  0.3476E-02  0.3476E-02
     -1.396  0.7280E-03  0.7280E-03  0.3521E-02  0.3521E-02
     -1.334  0.8197E-03  0.8197E-03  0.3572E-02  0.3572E-02
     -1.272  0.1031E-02  0.1031E-02  0.3636E-02  0.3636E-02
     -1.211  0.1259E-02  0.1259E-02  0.3714E-02  0.3714E-02
     -1.149  0.1403E-02  0.1403E-02  0.3801E-02  0.3801E-02
     -1.087  0.1261E-02  0.1261E-02  0.3879E-02  0.3879E-02
     -1.025  0.9742E-03  0.9742E-03  0.3939E-02  0.3939E-02
     -0.963  0.7168E-03  0.7168E-03  0.3983E-02  0.3983E-02
     -0.901  0.5740E-03  0.5740E-03  0.4019E-02  0.4019E-02
     -0.839  0.5204E-03  0.5204E-03  0.4051E-02  0.4051E-02
     -0.777  0.6235E-03  0.6235E-03  0.4090E-02  0.4090E-02
     -0.715  0.5891E-03  0.5891E-03  0.4126E-02  0.4126E-02
     -0.653  0.6622E-03  0.6622E-03  0.4167E-02  0.4167E-02
     -0.591  0.6449E-03  0.6449E-03  0.4207E-02  0.4207E-02
     -0.530  0.4044E-03  0.4044E-03  0.4232E-02  0.4232E-02
     -0.468  0.1971E-03  0.1971E-03  0.4244E-02  0.4244E-02
     -0.406  0.1015E-03  0.1015E-03  0.4251E-02  0.4251E-02
     -0.344  0.8932E-04  0.8932E-04  0.4256E-02  0.4256E-02
     -0.282  0.8783E-04  0.8783E-04  0.4262E-02  0.4262E-02
     -0.220  0.8638E-04  0.8638E-04  0.4267E-02  0.4267E-02
     -0.158  0.1113E-03  0.1113E-03  0.4274E-02  0.4274E-02
     -0.096  0.1262E-03  0.1262E-03  0.4282E-02  0.4282E-02
     -0.034  0.7711E-04  0.7711E-04  0.4286E-02  0.4286E-02
      0.028  0.4975E-04  0.4975E-04  0.4289E-02  0.4289E-02
      0.090  0.1444E-03  0.1444E-03  0.4298E-02  0.4298E-02
      0.151  0.2385E-03  0.2385E-03  0.4313E-02  0.4313E-02
      0.213  0.2420E-03  0.2420E-03  0.4328E-02  0.4328E-02
      0.275  0.1074E-03  0.1074E-03  0.4335E-02  0.4335E-02
      0.337  0.4528E-04  0.4528E-04  0.4338E-02  0.4338E-02
      0.399  0.6206E-04  0.6206E-04  0.4341E-02  0.4341E-02
      0.461  0.5906E-04  0.5906E-04  0.4345E-02  0.4345E-02
      0.523  0.4971E-04  0.4971E-04  0.4348E-02  0.4348E-02
      0.585  0.6952E-04  0.6952E-04  0.4352E-02  0.4352E-02
      0.647  0.1239E-03  0.1239E-03  0.4360E-02  0.4360E-02
      0.709  0.2069E-03  0.2069E-03  0.4373E-02  0.4373E-02
      0.771  0.1747E-03  0.1747E-03  0.4384E-02  0.4384E-02
      0.832  0.5157E-04  0.5157E-04  0.4387E-02  0.4387E-02
      0.894  0.3577E-04  0.3577E-04  0.4389E-02  0.4389E-02
      0.956  0.9716E-04  0.9716E-04  0.4395E-02  0.4395E-02
      1.018  0.1766E-03  0.1766E-03  0.4406E-02  0.4406E-02
      1.080  0.2375E-03  0.2375E-03  0.4421E-02  0.4421E-02
      1.142  0.2922E-03  0.2922E-03  0.4439E-02  0.4439E-02
      1.204  0.1460E-03  0.1460E-03  0.4448E-02  0.4448E-02
      1.266  0.1318E-03  0.1318E-03  0.4456E-02  0.4456E-02
      1.328  0.1119E-03  0.1119E-03  0.4463E-02  0.4463E-02
      1.390  0.6718E-04  0.6718E-04  0.4467E-02  0.4467E-02
      1.452  0.4867E-04  0.4867E-04  0.4470E-02  0.4470E-02
      1.514  0.7675E-04  0.7675E-04  0.4475E-02  0.4475E-02
      1.575  0.1150E-03  0.1150E-03  0.4482E-02  0.4482E-02
      1.637  0.1822E-03  0.1822E-03  0.4493E-02  0.4493E-02
      1.699  0.2358E-03  0.2358E-03  0.4508E-02  0.4508E-02
      1.761  0.1674E-03  0.1674E-03  0.4518E-02  0.4518E-02
      1.823  0.7157E-04  0.7157E-04  0.4523E-02  0.4523E-02
      1.885  0.4234E-04  0.4234E-04  0.4525E-02  0.4525E-02
      1.947  0.3257E-04  0.3257E-04  0.4527E-02  0.4527E-02
      2.009  0.1807E-03  0.1807E-03  0.4539E-02  0.4539E-02
      2.071  0.2510E-03  0.2510E-03  0.4554E-02  0.4554E-02
      2.133  0.1755E-03  0.1755E-03  0.4565E-02  0.4565E-02
      2.195  0.1788E-03  0.1788E-03  0.4576E-02  0.4576E-02
      2.256  0.2275E-03  0.2275E-03  0.4590E-02  0.4590E-02
      2.318  0.1801E-03  0.1801E-03  0.4601E-02  0.4601E-02
      2.380  0.1212E-03  0.1212E-03  0.4609E-02  0.4609E-02
      2.442  0.4613E-04  0.4613E-04  0.4612E-02  0.4612E-02
      2.504  0.2558E-04  0.2558E-04  0.4613E-02  0.4613E-02
      2.566  0.6960E-04  0.6960E-04  0.4617E-02  0.4617E-02
      2.628  0.1246E-03  0.1246E-03  0.4625E-02  0.4625E-02
      2.690  0.1292E-03  0.1292E-03  0.4633E-02  0.4633E-02
      2.752  0.1089E-03  0.1089E-03  0.4640E-02  0.4640E-02
      2.814  0.6184E-04  0.6184E-04  0.4644E-02  0.4644E-02
      2.876  0.1102E-03  0.1102E-03  0.4651E-02  0.4651E-02
      2.937  0.1477E-03  0.1477E-03  0.4660E-02  0.4660E-02
      2.999  0.7532E-04  0.7532E-04  0.4664E-02  0.4664E-02
      3.061  0.1005E-03  0.1005E-03  0.4671E-02  0.4671E-02
      3.123  0.2234E-03  0.2234E-03  0.4684E-02  0.4684E-02
      3.185  0.2216E-03  0.2216E-03  0.4698E-02  0.4698E-02
      3.247  0.9564E-04  0.9564E-04  0.4704E-02  0.4704E-02
      3.309  0.1623E-03  0.1623E-03  0.4714E-02  0.4714E-02
      3.371  0.1149E-03  0.1149E-03  0.4721E-02  0.4721E-02
      3.433  0.9037E-04  0.9037E-04  0.4727E-02  0.4727E-02
      3.495  0.8078E-04  0.8078E-04  0.4732E-02  0.4732E-02
      3.557  0.6895E-04  0.6895E-04  0.4736E-02  0.4736E-02
      3.618  0.1167E-03  0.1167E-03  0.4743E-02  0.4743E-02
      3.680  0.1638E-03  0.1638E-03  0.4754E-02  0.4754E-02
      3.742  0.1942E-03  0.1942E-03  0.4766E-02  0.4766E-02
      3.804  0.1768E-03  0.1768E-03  0.4776E-02  0.4776E-02
      3.866  0.1344E-03  0.1344E-03  0.4785E-02  0.4785E-02
      3.928  0.1692E-03  0.1692E-03  0.4795E-02  0.4795E-02
      3.990  0.1480E-03  0.1480E-03  0.4804E-02  0.4804E-02
      4.052  0.1259E-03  0.1259E-03  0.4812E-02  0.4812E-02
      4.114  0.7510E-04  0.7510E-04  0.4817E-02  0.4817E-02
      4.176  0.7177E-04  0.7177E-04  0.4821E-02  0.4821E-02
      4.238  0.1283E-03  0.1283E-03  0.4829E-02  0.4829E-02
      4.299  0.1400E-03  0.1400E-03  0.4838E-02  0.4838E-02
      4.361  0.1492E-03  0.1492E-03  0.4847E-02  0.4847E-02
      4.423  0.1279E-03  0.1279E-03  0.4855E-02  0.4855E-02
      4.485  0.9768E-04  0.9768E-04  0.4861E-02  0.4861E-02
      4.547  0.9133E-04  0.9133E-04  0.4867E-02  0.4867E-02
      4.609  0.6398E-04  0.6398E-04  0.4871E-02  0.4871E-02
      4.671  0.6704E-04  0.6704E-04  0.4875E-02  0.4875E-02
      4.733  0.8874E-04  0.8874E-04  0.4880E-02  0.4880E-02
      4.795  0.1415E-03  0.1415E-03  0.4889E-02  0.4889E-02
      4.857  0.1592E-03  0.1592E-03  0.4899E-02  0.4899E-02
      4.919  0.1821E-03  0.1821E-03  0.4910E-02  0.4910E-02
      4.980  0.9660E-04  0.9660E-04  0.4916E-02  0.4916E-02
      5.042  0.1417E-03  0.1417E-03  0.4925E-02  0.4925E-02
      5.104  0.1965E-03  0.1965E-03  0.4937E-02  0.4937E-02
      5.166  0.1982E-03  0.1982E-03  0.4949E-02  0.4949E-02
      5.228  0.2209E-03  0.2209E-03  0.4963E-02  0.4963E-02
      5.290  0.2315E-03  0.2315E-03  0.4977E-02  0.4977E-02
      5.352  0.1191E-03  0.1191E-03  0.4985E-02  0.4985E-02
      5.414  0.1268E-03  0.1268E-03  0.4993E-02  0.4993E-02
      5.476  0.1913E-03  0.1913E-03  0.5005E-02  0.5005E-02
      5.538  0.1236E-03  0.1236E-03  0.5012E-02  0.5012E-02
      5.600  0.1498E-03  0.1498E-03  0.5021E-02  0.5021E-02
      5.661  0.1458E-03  0.1458E-03  0.5031E-02  0.5031E-02
      5.723  0.2622E-03  0.2622E-03  0.5047E-02  0.5047E-02
      5.785  0.2667E-03  0.2667E-03  0.5063E-02  0.5063E-02
      5.847  0.2164E-03  0.2164E-03  0.5077E-02  0.5077E-02
      5.909  0.1553E-03  0.1553E-03  0.5086E-02  0.5086E-02
      5.971  0.1410E-03  0.1410E-03  0.5095E-02  0.5095E-02
      6.033  0.2225E-03  0.2225E-03  0.5109E-02  0.5109E-02
      6.095  0.2583E-03  0.2583E-03  0.5125E-02  0.5125E-02
      6.157  0.2345E-03  0.2345E-03  0.5139E-02  0.5139E-02
      6.219  0.2483E-03  0.2483E-03  0.5155E-02  0.5155E-02
      6.281  0.2248E-03  0.2248E-03  0.5169E-02  0.5169E-02
      6.342  0.1140E-03  0.1140E-03  0.5176E-02  0.5176E-02
      6.404  0.1669E-03  0.1669E-03  0.5186E-02  0.5186E-02
      6.466  0.1808E-03  0.1808E-03  0.5197E-02  0.5197E-02
      6.528  0.1161E-03  0.1161E-03  0.5204E-02  0.5204E-02
      6.590  0.1769E-03  0.1769E-03  0.5215E-02  0.5215E-02
      6.652  0.2556E-03  0.2556E-03  0.5231E-02  0.5231E-02
      6.714  0.1676E-03  0.1676E-03  0.5241E-02  0.5241E-02
      6.776  0.1834E-03  0.1834E-03  0.5253E-02  0.5253E-02
      6.838  0.2389E-03  0.2389E-03  0.5268E-02  0.5268E-02
      6.900  0.2182E-03  0.2182E-03  0.5281E-02  0.5281E-02
      6.962  0.1351E-03  0.1351E-03  0.5289E-02  0.5289E-02
      7.023  0.2225E-03  0.2225E-03  0.5303E-02  0.5303E-02
      7.085  0.2593E-03  0.2593E-03  0.5319E-02  0.5319E-02
      7.147  0.2472E-03  0.2472E-03  0.5335E-02  0.5335E-02
      7.209  0.2935E-03  0.2935E-03  0.5353E-02  0.5353E-02
      7.271  0.2110E-03  0.2110E-03  0.5366E-02  0.5366E-02
      7.333  0.1587E-03  0.1587E-03  0.5376E-02  0.5376E-02
      7.395  0.1841E-03  0.1841E-03  0.5387E-02  0.5387E-02
      7.457  0.1715E-03  0.1715E-03  0.5398E-02  0.5398E-02
      7.519  0.6952E-04  0.6952E-04  0.5402E-02  0.5402E-02
      7.581  0.1378E-03  0.1378E-03  0.5411E-02  0.5411E-02
      7.643  0.2256E-03  0.2256E-03  0.5424E-02  0.5424E-02
      7.705  0.1991E-03  0.1991E-03  0.5437E-02  0.5437E-02
      7.766  0.1792E-03  0.1792E-03  0.5448E-02  0.5448E-02
      7.828  0.2079E-03  0.2079E-03  0.5461E-02  0.5461E-02
      7.890  0.1679E-03  0.1679E-03  0.5471E-02  0.5471E-02
      7.952  0.9573E-04  0.9573E-04  0.5477E-02  0.5477E-02
      8.014  0.6318E-04  0.6318E-04  0.5481E-02  0.5481E-02
      8.076  0.1758E-03  0.1758E-03  0.5492E-02  0.5492E-02
      8.138  0.2295E-03  0.2295E-03  0.5506E-02  0.5506E-02
      8.200  0.1778E-03  0.1778E-03  0.5517E-02  0.5517E-02
      8.262  0.1947E-03  0.1947E-03  0.5529E-02  0.5529E-02
      8.324  0.1511E-03  0.1511E-03  0.5539E-02  0.5539E-02
      8.386  0.1121E-03  0.1121E-03  0.5545E-02  0.5545E-02
      8.447  0.1012E-03  0.1012E-03  0.5552E-02  0.5552E-02
      8.509  0.1114E-03  0.1114E-03  0.5559E-02  0.5559E-02
      8.571  0.1045E-03  0.1045E-03  0.5565E-02  0.5565E-02
      8.633  0.8499E-04  0.8499E-04  0.5570E-02  0.5570E-02
      8.695  0.1116E-03  0.1116E-03  0.5577E-02  0.5577E-02
      8.757  0.8404E-04  0.8404E-04  0.5582E-02  0.5582E-02
      8.819  0.3447E-04  0.3447E-04  0.5585E-02  0.5585E-02
      8.881  0.8160E-04  0.8160E-04  0.5590E-02  0.5590E-02
      8.943  0.6080E-04  0.6080E-04  0.5593E-02  0.5593E-02
      9.005  0.2730E-04  0.2730E-04  0.5595E-02  0.5595E-02
      9.067  0.6986E-05  0.6986E-05  0.5596E-02  0.5596E-02
      9.128  0.9830E-06  0.9830E-06  0.5596E-02  0.5596E-02
      9.190  0.1136E-04  0.1136E-04  0.5596E-02  0.5596E-02
      9.252  0.3196E-04  0.3196E-04  0.5598E-02  0.5598E-02
      9.314  0.2433E-04  0.2433E-04  0.5600E-02  0.5600E-02
      9.376  0.3074E-05  0.3074E-05  0.5600E-02  0.5600E-02
      9.438  0.4007E-07  0.4007E-07  0.5600E-02  0.5600E-02
      9.500  0.3555E-10  0.3555E-10  0.5600E-02  0.5600E-02
      9.562  0.1726E-14  0.1726E-14  0.5600E-02  0.5600E-02
      9.624  0.3974E-20  0.3974E-20  0.5600E-02  0.5600E-02
      9.686  0.0000E+00  0.0000E+00  0.5600E-02  0.5600E-02
      9.748  0.0000E+00  0.0000E+00  0.5600E-02  0.5600E-02
      9.809  0.0000E+00  0.0000E+00  0.5600E-02  0.5600E-02
      9.871  0.0000E+00  0.0000E+00  0.5600E-02  0.5600E-02
      9.933  0.0000E+00  0.0000E+00  0.5600E-02  0.5600E-02
      9.995  0.0000E+00  0.0000E+00  0.5600E-02  0.5600E-02
     10.057  0.0000E+00  0.0000E+00  0.5600E-02  0.5600E-02
     10.119  0.0000E+00  0.0000E+00  0.5600E-02  0.5600E-02
