       N       E                     dE             d eps       ncg     rms          rms(c)
DAV:   1     0.256791636738E+03    0.25679E+03   -0.18730E+04 20316   0.122E+03
DAV:   2     0.160637929597E+01   -0.25519E+03   -0.24088E+03 23904   0.256E+02
DAV:   3    -0.930259838697E+01   -0.10909E+02   -0.10469E+02 23180   0.497E+01
DAV:   4    -0.949222332521E+01   -0.18962E+00   -0.18896E+00 22636   0.666E+00
DAV:   5    -0.949586776955E+01   -0.36444E-02   -0.36440E-02 22564   0.989E-01    0.201E+01
DAV:   6    -0.504438920283E+01    0.44515E+01   -0.14297E+01 21000   0.161E+01    0.147E+01
DAV:   7    -0.410130387823E+01    0.94309E+00   -0.38061E+00 21160   0.725E+00    0.642E+00
DAV:   8    -0.429562653184E+01   -0.19432E+00   -0.54800E+00 21316   0.612E+00    0.462E+00
DAV:   9    -0.491808190952E+01   -0.62246E+00   -0.39501E-01 21144   0.330E+00    0.170E+00
DAV:  10    -0.544668086804E+01   -0.52860E+00   -0.67866E-02 21240   0.122E+00    0.141E+00
DAV:  11    -0.608876081414E+01   -0.64208E+00   -0.12293E-01 20972   0.157E+00    0.125E+00
DAV:  12    -0.737259860045E+01   -0.12838E+01   -0.61796E-01 21496   0.296E+00    0.126E+00
DAV:  13    -0.817547138912E+01   -0.80287E+00   -0.54750E-01 21364   0.248E+00    0.926E-01
DAV:  14    -0.847733531070E+01   -0.30186E+00   -0.24396E-01 20548   0.161E+00    0.670E-01
DAV:  15    -0.870072397682E+01   -0.22339E+00   -0.14989E-01 21100   0.101E+00    0.674E-01
DAV:  16    -0.884666284172E+01   -0.14594E+00   -0.11503E-01 20536   0.853E-01    0.494E-01
DAV:  17    -0.889202749196E+01   -0.45365E-01   -0.57096E-02 21460   0.387E-01    0.393E-01
DAV:  18    -0.897634199734E+01   -0.84315E-01   -0.69890E-02 20500   0.639E-01    0.310E-01
DAV:  19    -0.899966320001E+01   -0.23321E-01   -0.31781E-03 21216   0.221E-01    0.165E-01
DAV:  20    -0.904783879417E+01   -0.48176E-01   -0.21836E-02 20396   0.451E-01    0.113E-01
DAV:  21    -0.905727421516E+01   -0.94354E-02   -0.17980E-03 21164   0.176E-01    0.792E-02
DAV:  22    -0.906253549310E+01   -0.52613E-02   -0.10110E-03 20560   0.103E-01    0.524E-02
DAV:  23    -0.906306037428E+01   -0.52488E-03   -0.55844E-04 21396   0.718E-02    0.309E-02
DAV:  24    -0.906358252639E+01   -0.52215E-03   -0.90358E-05 20852   0.426E-02    0.155E-02
DAV:  25    -0.906373760445E+01   -0.15508E-03   -0.44935E-05 20728   0.271E-02    0.109E-02
DAV:  26    -0.906385350591E+01   -0.11590E-03   -0.11227E-05 20016   0.187E-02    0.934E-03
DAV:  27    -0.906397925186E+01   -0.12575E-03   -0.19399E-05 19512   0.177E-02    0.700E-03
DAV:  28    -0.906406593384E+01   -0.86682E-04   -0.20008E-05 18400   0.148E-02    0.565E-03
DAV:  29    -0.906408163995E+01   -0.15706E-04   -0.93129E-06 19592   0.172E-02    0.500E-03
DAV:  30    -0.906408108278E+01    0.55718E-06   -0.31146E-06 16480   0.120E-02
   1 F= -.10305918E+02 E0= -.10303102E+02  d E =-.103059E+02  mag=    -0.0019
       N       E                     dE             d eps       ncg     rms          rms(c)
DAV:   1    -0.105499393221E+02   -0.14859E+01   -0.57839E+02 20272   0.900E+01    0.563E+00
DAV:   2    -0.110189506132E+02   -0.46901E+00   -0.40321E+00 20900   0.107E+01    0.693E+00
DAV:   3    -0.110271560290E+02   -0.82054E-02   -0.62780E-02 22064   0.121E+00    0.679E+00
DAV:   4    -0.109643464813E+02    0.62810E-01   -0.95321E-02 21320   0.164E+00    0.753E+00
DAV:   5    -0.110572025164E+02   -0.92856E-01   -0.60482E-01 22440   0.151E+00    0.830E+00
DAV:   6    -0.113100182350E+02   -0.25282E+00   -0.89970E-01 22376   0.313E+00    0.109E+01
DAV:   7    -0.124961544156E+02   -0.11861E+01   -0.22775E+00 20716   0.747E+00    0.208E+01
DAV:   8    -0.128984310336E+02   -0.40228E+00   -0.27192E-01 22236   0.262E+00    0.248E+01
DAV:   9    -0.173251267799E+02   -0.44267E+01   -0.54375E+00 20972   0.107E+01    0.433E+01
DAV:  10    -0.154970757326E+02    0.18281E+01   -0.79262E-01 21120   0.407E+00    0.355E+01
DAV:  11    -0.127891288925E+02    0.27079E+01   -0.25087E+00 21108   0.700E+00    0.216E+01
DAV:  12    -0.111520176627E+02    0.16371E+01   -0.85429E+00 21260   0.125E+01    0.517E+00
DAV:  13    -0.124498552332E+02   -0.12978E+01   -0.37140E+00 21852   0.845E+00    0.226E+01
DAV:  14    -0.122690897646E+02    0.18077E+00   -0.87474E-02 21324   0.152E+00    0.210E+01
DAV:  15    -0.123623415979E+02   -0.93252E-01   -0.73111E-03 23216   0.405E-01    0.219E+01
DAV:  16    -0.121515075436E+02    0.21083E+00   -0.42070E-02 21632   0.101E+00    0.201E+01
DAV:  17    -0.124053827429E+02   -0.25388E+00   -0.17223E-01 22136   0.182E+00    0.214E+01
DAV:  18    -0.116429078076E+02    0.76247E+00   -0.43823E-01 21972   0.329E+00    0.138E+01
DAV:  19    -0.112477522572E+02    0.39516E+00   -0.30864E-01 21756   0.246E+00    0.881E+00
DAV:  20    -0.110638214953E+02    0.18393E+00   -0.12206E-01 21704   0.160E+00    0.540E+00
DAV:  21    -0.109860086895E+02    0.77813E-01   -0.91523E-02 21868   0.153E+00    0.340E+00
DAV:  22    -0.109707519126E+02    0.15257E-01   -0.96784E-03 21744   0.484E-01    0.296E+00
DAV:  23    -0.109449101291E+02    0.25842E-01   -0.48707E-03 21868   0.411E-01    0.302E+00
DAV:  24    -0.109167801167E+02    0.28130E-01   -0.57138E-03 22076   0.457E-01    0.273E+00
DAV:  25    -0.109031288000E+02    0.13651E-01   -0.24542E-02 22572   0.652E-01    0.129E+00
DAV:  26    -0.108989651476E+02    0.41637E-02   -0.10152E-03 22444   0.154E-01    0.114E+00
DAV:  27    -0.108942630203E+02    0.47021E-02   -0.16628E-02 21880   0.456E-01    0.541E-01
DAV:  28    -0.108937774782E+02    0.48554E-03   -0.51657E-03 22656   0.227E-01    0.263E-01
DAV:  29    -0.108938720192E+02   -0.94541E-04   -0.12528E-02 22472   0.920E-02    0.249E-01
DAV:  30    -0.108933761797E+02    0.49584E-03   -0.11189E-04 21752   0.539E-02    0.186E-01
DAV:  31    -0.108933228766E+02    0.53303E-04   -0.79547E-04 22320   0.465E-02    0.120E-01
DAV:  32    -0.108932499596E+02    0.72917E-04   -0.46021E-04 21208   0.642E-02    0.377E-02
DAV:  33    -0.108932568996E+02   -0.69400E-05   -0.19431E-05 22456   0.254E-02    0.363E-02
DAV:  34    -0.108932482735E+02    0.86261E-05   -0.79993E-06 21344   0.118E-02    0.328E-02
DAV:  35    -0.108932404637E+02    0.78098E-05   -0.17870E-05 15692   0.645E-03    0.173E-02
DAV:  36    -0.108932399974E+02    0.46622E-06   -0.63415E-06 12420   0.477E-03
   2 F= -.12125919E+02 E0= -.12121675E+02  d E =-.182000E+01  mag=    -0.0005
       N       E                     dE             d eps       ncg     rms          rms(c)
DAV:   1    -0.111000675499E+02   -0.20683E+00   -0.72349E+01 20272   0.302E+01    0.161E+00
DAV:   2    -0.111879692396E+02   -0.87902E-01   -0.62413E-01 22016   0.406E+00    0.960E-01
DAV:   3    -0.111801922417E+02    0.77770E-02   -0.50196E-02 21380   0.133E+00    0.130E+00
DAV:   4    -0.111732018885E+02    0.69904E-02   -0.50736E-02 21476   0.638E-01    0.977E-01
DAV:   5    -0.111845118617E+02   -0.11310E-01   -0.49717E-01 22064   0.770E-01    0.988E-01
DAV:   6    -0.111555978389E+02    0.28914E-01   -0.79840E-03 22440   0.770E-01    0.365E-01
DAV:   7    -0.111533405668E+02    0.22573E-02   -0.99698E-04 21500   0.212E-01    0.249E-01
DAV:   8    -0.111533016289E+02    0.38938E-04   -0.46980E-03 22064   0.149E-01    0.280E-01
DAV:   9    -0.111521851188E+02    0.11165E-02   -0.77795E-05 21924   0.632E-02    0.796E-02
DAV:  10    -0.111521416266E+02    0.43492E-04   -0.79410E-04 22552   0.272E-02    0.540E-02
DAV:  11    -0.111521156087E+02    0.26018E-04   -0.25489E-04 21940   0.180E-02    0.362E-02
DAV:  12    -0.111520988726E+02    0.16736E-04   -0.11209E-04 15952   0.116E-02    0.764E-03
DAV:  13    -0.111520983790E+02    0.49362E-06   -0.31297E-07 12068   0.341E-03
   3 F= -.12372710E+02 E0= -.12368473E+02  d E =-.206679E+01  mag=    -0.0002
       N       E                     dE             d eps       ncg     rms          rms(c)
DAV:   1    -0.112030414262E+02   -0.50943E-01   -0.31061E+02 20272   0.651E+01    0.165E+00
DAV:   2    -0.114313338645E+02   -0.22829E+00   -0.22279E+00 20952   0.833E+00    0.216E+00
DAV:   3    -0.114000349135E+02    0.31299E-01   -0.69304E-02 22236   0.135E+00    0.166E+00
DAV:   4    -0.114334967835E+02   -0.33462E-01   -0.68372E-01 22516   0.133E+00    0.172E+00
DAV:   5    -0.114423554940E+02   -0.88587E-02   -0.62508E-02 22564   0.156E+00    0.695E-01
DAV:   6    -0.114200141842E+02    0.22341E-01   -0.84062E-03 22504   0.554E-01    0.511E-01
DAV:   7    -0.114164057158E+02    0.36085E-02   -0.34957E-03 23328   0.508E-01    0.831E-01
DAV:   8    -0.114028682235E+02    0.13537E-01   -0.16706E-03 21728   0.288E-01    0.356E-01
DAV:   9    -0.113899132439E+02    0.12955E-01   -0.12435E-03 22816   0.281E-01    0.333E-01
DAV:  10    -0.113850535095E+02    0.48597E-02   -0.23141E-04 23444   0.103E-01    0.333E-01
DAV:  11    -0.113910111958E+02   -0.59577E-02   -0.12210E-04 22268   0.799E-02    0.410E-01
DAV:  12    -0.114282945300E+02   -0.37283E-01   -0.46044E-01 22920   0.590E-01    0.840E-01
DAV:  13    -0.113820341421E+02    0.46260E-01   -0.17343E-01 22688   0.448E-01    0.370E-01
DAV:  14    -0.113797197332E+02    0.23144E-02   -0.22936E-04 20744   0.776E-02    0.123E-01
DAV:  15    -0.113799863913E+02   -0.26666E-03   -0.22872E-05 22316   0.361E-02    0.169E-01
DAV:  16    -0.113795821983E+02    0.40419E-03   -0.44145E-03 22168   0.392E-02    0.680E-02
DAV:  17    -0.113795114120E+02    0.70786E-04   -0.63567E-04 22128   0.252E-02    0.258E-02
DAV:  18    -0.113795013896E+02    0.10022E-04   -0.11177E-04 17256   0.102E-02    0.101E-02
DAV:  19    -0.113794998902E+02    0.14994E-05   -0.19893E-07 12292   0.318E-03    0.188E-03
DAV:  20    -0.113795004867E+02   -0.59650E-06   -0.48060E-06 12212   0.314E-03
   4 F= -.12570069E+02 E0= -.12566802E+02  d E =-.226415E+01  mag=    -0.0000
       N       E                     dE             d eps       ncg     rms          rms(c)
DAV:   1    -0.113867749925E+02   -0.72751E-02   -0.12772E+01 20272   0.127E+01    0.334E-01
DAV:   2    -0.114161108383E+02   -0.29336E-01   -0.11802E-01 21776   0.204E+00    0.663E-01
DAV:   3    -0.113999360238E+02    0.16175E-01   -0.26555E-02 21552   0.551E-01    0.541E-01
DAV:   4    -0.113977374730E+02    0.21986E-02   -0.40510E-02 23312   0.241E-01    0.385E-01
DAV:   5    -0.113986961712E+02   -0.95870E-03   -0.16879E-03 22592   0.247E-01    0.272E-01
DAV:   6    -0.113955902615E+02    0.31059E-02   -0.72468E-04 21920   0.158E-01    0.848E-02
DAV:   7    -0.113955960542E+02   -0.57928E-05   -0.39555E-04 21328   0.948E-02    0.472E-02
DAV:   8    -0.113955554003E+02    0.40654E-04   -0.15147E-04 21928   0.443E-02    0.346E-02
DAV:   9    -0.113955250317E+02    0.30369E-04   -0.12206E-05 23200   0.180E-02    0.132E-02
DAV:  10    -0.113955207548E+02    0.42769E-05   -0.43637E-06 22740   0.919E-03    0.376E-03
DAV:  11    -0.113955205008E+02    0.25406E-06   -0.20532E-07 11656   0.283E-03
   5 F= -.12579701E+02 E0= -.12576422E+02  d E =-.227378E+01  mag=    -0.0000
       N       E                     dE             d eps       ncg     rms          rms(c)
DAV:   1    -0.113971121619E+02   -0.15914E-02   -0.97342E+00 20272   0.110E+01    0.278E-01
DAV:   2    -0.114218511540E+02   -0.24739E-01   -0.91352E-02 22112   0.176E+00    0.621E-01
DAV:   3    -0.114073536089E+02    0.14498E-01   -0.26350E-02 22024   0.474E-01    0.480E-01
DAV:   4    -0.114053971126E+02    0.19565E-02   -0.28077E-02 23496   0.214E-01    0.302E-01
DAV:   5    -0.114048839779E+02    0.51313E-03   -0.10181E-03 22716   0.176E-01    0.168E-01
DAV:   6    -0.114047717923E+02    0.11219E-03   -0.87454E-04 22372   0.171E-01    0.203E-01
DAV:   7    -0.114040898004E+02    0.68199E-03   -0.35882E-04 22312   0.123E-01    0.696E-02
DAV:   8    -0.114039392479E+02    0.15055E-03   -0.93818E-05 20868   0.440E-02    0.208E-02
DAV:   9    -0.114039283146E+02    0.10933E-04   -0.78531E-06 22772   0.129E-02    0.841E-03
DAV:  10    -0.114039269246E+02    0.13900E-05   -0.33925E-06 18036   0.662E-03    0.299E-03
DAV:  11    -0.114039267713E+02    0.15335E-06   -0.31905E-07 11660   0.310E-03
   6 F= -.12582722E+02 E0= -.12579429E+02  d E =-.227680E+01  mag=    -0.0000
       N       E                     dE             d eps       ncg     rms          rms(c)
DAV:   1    -0.114049887538E+02   -0.10618E-02   -0.72393E-01 20272   0.300E+00    0.771E-02
DAV:   2    -0.114080812680E+02   -0.30925E-02   -0.70358E-03 22104   0.483E-01    0.336E-01
DAV:   3    -0.114056179795E+02    0.24633E-02   -0.17484E-03 22088   0.156E-01    0.835E-02
DAV:   4    -0.114056442641E+02   -0.26285E-04   -0.24485E-03 22964   0.622E-02    0.990E-02
DAV:   5    -0.114055271043E+02    0.11716E-03   -0.26246E-04 21992   0.501E-02    0.403E-02
DAV:   6    -0.114055073112E+02    0.19793E-04   -0.14153E-04 22052   0.475E-02    0.131E-02
DAV:   7    -0.114055042246E+02    0.30865E-05   -0.83714E-06 21072   0.141E-02    0.527E-03
DAV:   8    -0.114055036018E+02    0.62283E-06   -0.17497E-06 19400   0.521E-03
   7 F= -.12582868E+02 E0= -.12579572E+02  d E =-.227695E+01  mag=    -0.0000
       N       E                     dE             d eps       ncg     rms          rms(c)
DAV:   1    -0.114053449313E+02    0.15929E-03   -0.84479E-03 20288   0.324E-01    0.828E-03
DAV:   2    -0.114053828208E+02   -0.37889E-04   -0.89085E-05 22136   0.527E-02    0.374E-02
DAV:   3    -0.114053528500E+02    0.29971E-04   -0.45286E-05 22248   0.179E-02    0.112E-02
DAV:   4    -0.114053520717E+02    0.77831E-06   -0.24307E-05 12948   0.723E-03    0.841E-03
DAV:   5    -0.114053512382E+02    0.83353E-06   -0.46360E-06 13076   0.620E-03
   8 F= -.12582869E+02 E0= -.12579580E+02  d E =-.227695E+01  mag=    -0.0000
       N       E                     dE             d eps       ncg     rms          rms(c)
DAV:   1    -0.114053199471E+02    0.32125E-04   -0.34045E-04 21488   0.661E-02    0.250E-03
DAV:   2    -0.114053228657E+02   -0.29185E-05   -0.60223E-06 22080   0.129E-02    0.129E-02
DAV:   3    -0.114053204637E+02    0.24020E-05   -0.12401E-05 14128   0.705E-03    0.419E-03
DAV:   4    -0.114053202244E+02    0.23929E-06   -0.22823E-06 12248   0.291E-03
   9 F= -.12582869E+02 E0= -.12579573E+02  d E =-.227695E+01  mag=    -0.0000
       N       E                     dE             d eps       ncg     rms          rms(c)
DAV:   1    -0.114053334930E+02   -0.13029E-04   -0.62364E-05 20360   0.279E-02    0.101E-03
DAV:   2    -0.114053342315E+02   -0.73850E-06   -0.69509E-07 13104   0.540E-03
  10 F= -.12582870E+02 E0= -.12579557E+02  d E =-.227695E+01  mag=    -0.0000
       N       E                     dE             d eps       ncg     rms          rms(c)
DAV:   1    -0.114053222914E+02    0.11202E-04   -0.44142E-05 21892   0.243E-02    0.814E-04
DAV:   2    -0.114053226493E+02   -0.35788E-06   -0.16255E-06 13048   0.446E-03
  11 F= -.12582869E+02 E0= -.12579584E+02  d E =-.227695E+01  mag=    -0.0000
       N       E                     dE             d eps       ncg     rms          rms(c)
DAV:   1    -0.114053279645E+02   -0.56730E-05   -0.12835E-05 20544   0.128E-02    0.161E-03
DAV:   2    -0.114053307775E+02   -0.28131E-05   -0.14796E-05 14200   0.807E-03    0.145E-02
DAV:   3    -0.114053280740E+02    0.27035E-05   -0.17473E-05 14036   0.775E-03    0.270E-03
DAV:   4    -0.114053279340E+02    0.14004E-06   -0.14095E-07 12000   0.159E-03
  12 F= -.12582869E+02 E0= -.12579574E+02  d E =-.227695E+01  mag=    -0.0000
       N       E                     dE             d eps       ncg     rms          rms(c)
DAV:   1    -0.114053050255E+02    0.23048E-04   -0.44089E-02 20272   0.710E-01    0.102E-02
DAV:   2    -0.114053493593E+02   -0.44334E-04   -0.44560E-04 20624   0.101E-01    0.116E-02
DAV:   3    -0.114053483279E+02    0.10314E-05   -0.10490E-05 21024   0.145E-02    0.107E-02
DAV:   4    -0.114053484017E+02   -0.73730E-07   -0.25614E-06 12936   0.488E-03
  13 F= -.12583081E+02 E0= -.12579775E+02  d E =-.211711E-03  mag=    -0.0000
       N       E                     dE             d eps       ncg     rms          rms(c)
DAV:   1    -0.114050655952E+02    0.28273E-03   -0.39694E-01 20272   0.213E+00    0.355E-02
DAV:   2    -0.114056101412E+02   -0.54455E-03   -0.44119E-03 21652   0.332E-01    0.117E-01
DAV:   3    -0.114054581388E+02    0.15200E-03   -0.10150E-03 22728   0.807E-02    0.458E-02
DAV:   4    -0.114054395019E+02    0.18637E-04   -0.19263E-05 22504   0.169E-02    0.360E-02
DAV:   5    -0.114054329268E+02    0.65751E-05   -0.41030E-06 20972   0.840E-03    0.334E-02
DAV:   6    -0.114054048260E+02    0.28101E-04   -0.11804E-04 21432   0.392E-02    0.746E-03
DAV:   7    -0.114054040783E+02    0.74766E-06   -0.61778E-06 21448   0.110E-02
  14 F= -.12583713E+02 E0= -.12580422E+02  d E =-.844373E-03  mag=    -0.0000
       N       E                     dE             d eps       ncg     rms          rms(c)
DAV:   1    -0.114040742917E+02    0.13305E-02   -0.15874E+00 20272   0.428E+00    0.619E-02
DAV:   2    -0.114056847029E+02   -0.16104E-02   -0.16120E-02 21248   0.611E-01    0.733E-02
DAV:   3    -0.114056971142E+02   -0.12411E-04   -0.10813E-03 21864   0.108E-01    0.900E-02
DAV:   4    -0.114056312343E+02    0.65880E-04   -0.52645E-04 22400   0.404E-02    0.636E-02
DAV:   5    -0.114056317721E+02   -0.53778E-06   -0.91902E-05 22296   0.205E-02    0.632E-02
DAV:   6    -0.114055339998E+02    0.97772E-04   -0.14045E-04 21136   0.446E-02    0.194E-02
DAV:   7    -0.114055284415E+02    0.55582E-05   -0.93634E-05 21224   0.337E-02    0.142E-02
DAV:   8    -0.114055262550E+02    0.21865E-05   -0.75671E-06 20792   0.115E-02    0.397E-03
DAV:   9    -0.114055260620E+02    0.19296E-06   -0.18796E-06 21136   0.620E-03
  15 F= -.12585002E+02 E0= -.12581705E+02  d E =-.213283E-02  mag=    -0.0000
       N       E                     dE             d eps       ncg     rms          rms(c)
DAV:   1    -0.114000326602E+02    0.54936E-02   -0.63595E+00 20272   0.855E+00    0.124E-01
DAV:   2    -0.114064170088E+02   -0.63843E-02   -0.63935E-02 21096   0.122E+00    0.149E-01
DAV:   3    -0.114064524817E+02   -0.35473E-04   -0.43143E-03 21808   0.213E-01    0.177E-01
DAV:   4    -0.114062032031E+02    0.24928E-03   -0.21934E-03 22480   0.793E-02    0.130E-01
DAV:   5    -0.114061881894E+02    0.15014E-04   -0.36078E-04 22496   0.380E-02    0.126E-01
DAV:   6    -0.114057923735E+02    0.39582E-03   -0.65860E-04 21224   0.917E-02    0.388E-02
DAV:   7    -0.114057710325E+02    0.21341E-04   -0.36437E-04 21328   0.664E-02    0.286E-02
DAV:   8    -0.114057635179E+02    0.75146E-05   -0.27185E-05 20872   0.234E-02    0.809E-03
DAV:   9    -0.114057629128E+02    0.60514E-06   -0.74709E-06 22592   0.136E-02
  16 F= -.12587623E+02 E0= -.12584325E+02  d E =-.475408E-02  mag=    -0.0000
       N       E                     dE             d eps       ncg     rms          rms(c)
DAV:   1    -0.113837880058E+02    0.21976E-01   -0.25564E+01 20272   0.172E+01    0.260E-01
DAV:   2    -0.114094555978E+02   -0.25668E-01   -0.25345E-01 21280   0.244E+00    0.357E-01
DAV:   3    -0.114096082303E+02   -0.15263E-03   -0.37523E-02 22512   0.482E-01    0.389E-01
DAV:   4    -0.114080805982E+02    0.15276E-02   -0.91291E-03 21936   0.191E-01    0.264E-01
DAV:   5    -0.114077476332E+02    0.33297E-03   -0.69320E-04 22240   0.744E-02    0.235E-01
DAV:   6    -0.114064597123E+02    0.12879E-02   -0.43585E-03 22296   0.215E-01    0.956E-02
DAV:   7    -0.114063203262E+02    0.13939E-03   -0.12855E-03 21680   0.984E-02    0.539E-02
DAV:   8    -0.114062994773E+02    0.20849E-04   -0.76263E-05 21760   0.369E-02    0.227E-02
DAV:   9    -0.114062969075E+02    0.25698E-05   -0.26080E-05 22416   0.298E-02    0.114E-02
DAV:  10    -0.114062948506E+02    0.20568E-05   -0.17374E-05 19612   0.988E-03    0.237E-03
DAV:  11    -0.114062947900E+02    0.60669E-07   -0.99304E-07 11932   0.242E-03
  17 F= -.12593133E+02 E0= -.12589838E+02  d E =-.102640E-01  mag=    -0.0000
       N       E                     dE             d eps       ncg     rms          rms(c)
DAV:   1    -0.113245910006E+02    0.81704E-01   -0.10426E+02 20272   0.354E+01    0.622E-01
DAV:   2    -0.114259086833E+02   -0.10132E+00   -0.96190E-01 20736   0.484E+00    0.863E-01
DAV:   3    -0.114202332342E+02    0.56754E-02   -0.24260E-01 22992   0.113E+00    0.712E-01
DAV:   4    -0.114147478509E+02    0.54854E-02   -0.45735E-02 21944   0.506E-01    0.539E-01
DAV:   5    -0.114113532884E+02    0.33946E-02   -0.72574E-03 21548   0.234E-01    0.422E-01
DAV:   6    -0.114114875955E+02   -0.13431E-03   -0.35822E-02 22432   0.462E-01    0.493E-01
DAV:   7    -0.114074796940E+02    0.40079E-02   -0.27601E-02 21224   0.219E-01    0.147E-01
DAV:   8    -0.114072768443E+02    0.20285E-03   -0.69905E-04 21696   0.874E-02    0.437E-02
DAV:   9    -0.114073347219E+02   -0.57878E-04   -0.79871E-05 22320   0.596E-02    0.599E-02
DAV:  10    -0.114072756080E+02    0.59114E-04   -0.46244E-04 21456   0.287E-02    0.175E-02
DAV:  11    -0.114072723391E+02    0.32689E-05   -0.33116E-05 15392   0.741E-03    0.340E-03
DAV:  12    -0.114072724253E+02   -0.86123E-07   -0.73103E-07 12584   0.240E-03
  18 F= -.12604936E+02 E0= -.12601642E+02  d E =-.220671E-01  mag=    -0.0000
       N       E                     dE             d eps       ncg     rms          rms(c)
DAV:   1    -0.111178266767E+02    0.28945E+00   -0.44625E+02 20272   0.768E+01    0.233E+00
DAV:   2    -0.114810166211E+02   -0.36319E+00   -0.35309E+00 20864   0.964E+00    0.143E+00
DAV:   3    -0.114594054977E+02    0.21611E-01   -0.12028E+00 22840   0.334E+00    0.142E+00
DAV:   4    -0.114342865564E+02    0.25119E-01   -0.60788E-02 22464   0.174E+00    0.107E+00
DAV:   5    -0.114192976209E+02    0.14989E-01   -0.84120E-03 22284   0.619E-01    0.846E-01
DAV:   6    -0.114582850742E+02   -0.38987E-01   -0.31046E-01 23356   0.911E-01    0.907E-01
DAV:   7    -0.114167175894E+02    0.41567E-01   -0.12973E-02 22144   0.743E-01    0.559E-01
DAV:   8    -0.114168505449E+02   -0.13296E-03   -0.23955E-01 22448   0.472E-01    0.452E-01
DAV:   9    -0.114109240613E+02    0.59265E-02   -0.14906E-02 22472   0.264E-01    0.170E-01
DAV:  10    -0.114110858789E+02   -0.16182E-03   -0.45868E-04 22512   0.155E-01    0.163E-01
DAV:  11    -0.114105892742E+02    0.49660E-03   -0.37368E-03 21592   0.133E-01    0.112E-01
DAV:  12    -0.114104124133E+02    0.17686E-03   -0.17347E-03 22116   0.503E-02    0.319E-02
DAV:  13    -0.114103983421E+02    0.14071E-04   -0.11642E-04 19632   0.151E-02    0.371E-03
DAV:  14    -0.114104010041E+02   -0.26620E-05   -0.94961E-06 15352   0.548E-03    0.109E-02
DAV:  15    -0.114104022562E+02   -0.12521E-05   -0.41739E-05 13480   0.600E-03    0.788E-03
DAV:  16    -0.114104028355E+02   -0.57932E-06   -0.14311E-05 13488   0.502E-03    0.289E-03
DAV:  17    -0.114104032735E+02   -0.43800E-06   -0.16353E-06 12264   0.175E-03
  19 F= -.12633445E+02 E0= -.12630152E+02  d E =-.505758E-01  mag=    -0.0000
       N       E                     dE             d eps       ncg     rms          rms(c)
DAV:   1    -0.855054461105E+01    0.28599E+01   -0.19618E+03 20288   0.165E+02    0.159E+01
DAV:   2    -0.115829756323E+02   -0.30324E+01   -0.30849E+01 20496   0.245E+01    0.763E+00
DAV:   3    -0.115233137588E+02    0.59662E-01   -0.18795E+00 22624   0.543E+00    0.524E+00
DAV:   4    -0.114837440867E+02    0.39570E-01   -0.81963E-01 23336   0.306E+00    0.439E+00
DAV:   5    -0.114746023726E+02    0.91417E-02   -0.48283E-02 22352   0.179E+00    0.304E+00
DAV:   6    -0.114373007359E+02    0.37302E-01   -0.17422E-01 22432   0.166E+00    0.256E+00
DAV:   7    -0.114578250987E+02   -0.20524E-01   -0.26965E-02 22400   0.126E+00    0.113E+00
DAV:   8    -0.114308156453E+02    0.27009E-01   -0.46949E-03 22656   0.405E-01    0.679E-01
DAV:   9    -0.114265352367E+02    0.42804E-02   -0.93406E-02 22448   0.389E-01    0.513E-01
DAV:  10    -0.114257109142E+02    0.82432E-03   -0.13569E-01 22952   0.375E-01    0.498E-01
DAV:  11    -0.114234764419E+02    0.22345E-02   -0.14189E-02 22296   0.190E-01    0.218E-01
DAV:  12    -0.114222339162E+02    0.12425E-02   -0.46745E-04 22144   0.135E-01    0.737E-02
DAV:  13    -0.114220439513E+02    0.18996E-03   -0.85290E-05 22424   0.657E-02    0.147E-02
DAV:  14    -0.114220519264E+02   -0.79752E-05   -0.10478E-04 21536   0.282E-02    0.197E-02
DAV:  15    -0.114220811857E+02   -0.29259E-04   -0.35835E-05 21424   0.205E-02    0.262E-02
DAV:  16    -0.114220727754E+02    0.84103E-05   -0.37624E-05 19184   0.213E-02    0.120E-02
DAV:  17    -0.114220772308E+02   -0.44554E-05   -0.17131E-05 16776   0.757E-03    0.333E-03
DAV:  18    -0.114220819220E+02   -0.46912E-05   -0.89287E-07 14824   0.266E-03    0.195E-03
DAV:  19    -0.114220834060E+02   -0.14840E-05   -0.17620E-07 12624   0.232E-03    0.118E-03
DAV:  20    -0.114220839097E+02   -0.50379E-06   -0.87385E-07 11944   0.117E-03
  20 F= -.12712587E+02 E0= -.12709295E+02  d E =-.129718E+00  mag=    -0.0000
       N       E                     dE             d eps       ncg     rms          rms(c)
DAV:   1    -0.462088802208E+00    0.10960E+02   -0.43321E+03 25160   0.254E+02    0.378E+01
DAV:   2    -0.141152032049E+02   -0.13653E+02   -0.14802E+02 21880   0.587E+01    0.188E+01
DAV:   3    -0.163016200461E+02   -0.21864E+01   -0.11055E+02 24280   0.305E+01    0.130E+01
DAV:   4    -0.116686051844E+02    0.46330E+01   -0.14655E+01 23144   0.164E+01    0.930E+00
DAV:   5    -0.115449092279E+02    0.12370E+00   -0.15019E+00 21608   0.690E+00    0.893E+00
DAV:   6    -0.115445550729E+02    0.35415E-03   -0.66933E-02 22248   0.174E+00    0.770E+00
DAV:   7    -0.115474743011E+02   -0.29192E-02   -0.65691E-02 22480   0.188E+00    0.428E+00
DAV:   8    -0.115425544956E+02    0.49198E-02   -0.27574E-02 21824   0.143E+00    0.223E+00
DAV:   9    -0.115337123384E+02    0.88422E-02   -0.59605E-02 23392   0.206E+00    0.683E-01
DAV:  10    -0.115276518154E+02    0.60605E-02   -0.28630E-03 21208   0.385E-01    0.590E-01
DAV:  11    -0.115197818816E+02    0.78699E-02   -0.35158E-02 22064   0.530E-01    0.525E-01
DAV:  12    -0.115167615420E+02    0.30203E-02   -0.91957E-03 22344   0.356E-01    0.349E-01
DAV:  13    -0.115222377199E+02   -0.54762E-02   -0.41497E-02 21920   0.969E-01    0.639E-01
DAV:  14    -0.115156120196E+02    0.66257E-02   -0.15179E-02 22152   0.232E-01    0.238E-01
DAV:  15    -0.115156656184E+02   -0.53599E-04   -0.33937E-05 21280   0.322E-02    0.242E-01
DAV:  16    -0.115157994127E+02   -0.13379E-03   -0.42992E-05 22840   0.149E-02    0.258E-01
DAV:  17    -0.115147108600E+02    0.10886E-02   -0.20854E-03 22312   0.161E-01    0.133E-01
DAV:  18    -0.115144544854E+02    0.25637E-03   -0.63898E-04 21552   0.227E-01    0.135E-01
DAV:  19    -0.115143723178E+02    0.82168E-04   -0.28815E-04 21240   0.499E-02    0.920E-02
DAV:  20    -0.115143471053E+02    0.25212E-04   -0.96269E-05 21832   0.193E-02    0.652E-02
DAV:  21    -0.115143741396E+02   -0.27034E-04   -0.40511E-05 21304   0.415E-02    0.509E-02
DAV:  22    -0.115143717151E+02    0.24245E-05   -0.90713E-05 21296   0.295E-02    0.179E-02
DAV:  23    -0.115143884439E+02   -0.16729E-04   -0.15843E-05 21272   0.311E-02    0.796E-03
DAV:  24    -0.115143938612E+02   -0.54173E-05   -0.82401E-06 15128   0.152E-02    0.544E-03
DAV:  25    -0.115143955729E+02   -0.17117E-05   -0.65946E-07 12048   0.550E-03    0.413E-03
DAV:  26    -0.115143961479E+02   -0.57503E-06   -0.14599E-07 12336   0.261E-03
  21 F= -.13016844E+02 E0= -.13013652E+02  d E =-.433975E+00  mag=     0.0000
       N       E                     dE             d eps       ncg     rms          rms(c)
DAV:   1     0.206522012933E+02    0.32167E+02   -0.65815E+03 25568   0.362E+02    0.615E+01
DAV:   2    -0.965916013765E+01   -0.30311E+02   -0.32575E+02 21632   0.101E+02    0.339E+01
DAV:   3    -0.795104078646E+01    0.17081E+01   -0.64443E+01 23480   0.473E+01    0.153E+01
DAV:   4    -0.880142828721E+01   -0.85039E+00   -0.44673E+01 23696   0.419E+01    0.219E+01
DAV:   5    -0.738536283979E+01    0.14161E+01   -0.10806E+01 22112   0.945E+00    0.153E+01
DAV:   6    -0.724695616462E+01    0.13841E+00   -0.16734E+00 22240   0.904E+00    0.112E+01
DAV:   7    -0.660981299957E+01    0.63714E+00   -0.11099E+00 22372   0.912E+00    0.302E+00
DAV:   8    -0.657002676710E+01    0.39786E-01   -0.13501E-01 22152   0.293E+00    0.135E+00
DAV:   9    -0.654676711449E+01    0.23260E-01   -0.17220E-02 22408   0.115E+00    0.105E+00
DAV:  10    -0.652312083872E+01    0.23646E-01   -0.20325E-02 24328   0.106E+00    0.694E-01
DAV:  11    -0.654292409559E+01   -0.19803E-01   -0.26080E-01 23344   0.201E+00    0.869E-01
DAV:  12    -0.653582203893E+01    0.71021E-02   -0.37985E-03 21080   0.391E-01    0.806E-01
DAV:  13    -0.653293513393E+01    0.28869E-02   -0.36878E-04 23316   0.101E-01    0.786E-01
DAV:  14    -0.651431426096E+01    0.18621E-01   -0.68053E-02 24448   0.128E+00    0.208E-01
DAV:  15    -0.651648585786E+01   -0.21716E-02   -0.28308E-03 21960   0.258E-01    0.291E-01
DAV:  16    -0.651419667637E+01    0.22892E-02   -0.18756E-03 22056   0.214E-01    0.168E-01
DAV:  17    -0.651342562288E+01    0.77105E-03   -0.22922E-03 22608   0.230E-01    0.499E-02
DAV:  18    -0.651342206481E+01    0.35581E-05   -0.12763E-04 22016   0.709E-02    0.230E-02
DAV:  19    -0.651345604167E+01   -0.33977E-04   -0.16609E-04 22184   0.540E-02    0.277E-02
DAV:  20    -0.651371762891E+01   -0.26159E-03   -0.33719E-04 22640   0.745E-02    0.108E-01
DAV:  21    -0.651349951067E+01    0.21812E-03   -0.63244E-04 22552   0.114E-01    0.168E-02
DAV:  22    -0.651351683307E+01   -0.17322E-04   -0.93401E-06 19560   0.231E-02    0.624E-03
DAV:  23    -0.651354178573E+01   -0.24953E-04   -0.68919E-06 15984   0.153E-02    0.166E-02
DAV:  24    -0.651355402405E+01   -0.12238E-04   -0.91271E-06 15952   0.143E-02    0.366E-03
DAV:  25    -0.651356428678E+01   -0.10263E-04   -0.54711E-07 14792   0.333E-03    0.510E-03
DAV:  26    -0.651356711699E+01   -0.28302E-05   -0.65839E-07 12864   0.413E-03    0.151E-03
DAV:  27    -0.651357028446E+01   -0.31675E-05   -0.26175E-06 13528   0.703E-03    0.610E-03
DAV:  28    -0.651357073639E+01   -0.45193E-06   -0.42955E-07 12624   0.363E-03
  22 F= -.83039749E+01 E0= -.83023044E+01  d E =0.427889E+01  mag=     0.0000
       N       E                     dE             d eps       ncg     rms          rms(c)
DAV:   1     0.116529557894E+02    0.18167E+02   -0.62936E+03 28432   0.419E+02    0.508E+01
DAV:   2    -0.154134248724E+02   -0.27066E+02   -0.29106E+02 21992   0.853E+01    0.291E+01
DAV:   3    -0.152562942982E+02    0.15713E+00   -0.55166E+01 25336   0.321E+01    0.231E+01
DAV:   4    -0.140304849032E+02    0.12258E+01   -0.12473E+02 25712   0.216E+01    0.188E+01
DAV:   5    -0.132582816418E+02    0.77220E+00   -0.23355E+01 22976   0.179E+01    0.153E+01
DAV:   6    -0.126053899020E+02    0.65289E+00   -0.58735E+00 21928   0.159E+01    0.894E+00
DAV:   7    -0.118014123525E+02    0.80398E+00   -0.47557E+00 22928   0.100E+01    0.317E+00
DAV:   8    -0.116436323852E+02    0.15778E+00   -0.26857E-01 22408   0.336E+00    0.172E+00
DAV:   9    -0.115888602933E+02    0.54772E-01   -0.14641E+00 22600   0.283E+00    0.155E+00
DAV:  10    -0.115746153601E+02    0.14245E-01   -0.28102E-02 22384   0.137E+00    0.928E-01
DAV:  11    -0.115370385724E+02    0.37577E-01   -0.35156E-02 22552   0.171E+00    0.491E-01
DAV:  12    -0.115315681924E+02    0.54704E-02   -0.38917E-03 22792   0.432E-01    0.413E-01
DAV:  13    -0.115266965798E+02    0.48716E-02   -0.12475E-03 23464   0.159E-01    0.365E-01
DAV:  14    -0.115472958096E+02   -0.20599E-01   -0.34688E-01 23024   0.775E-01    0.845E-01
DAV:  15    -0.115355605408E+02    0.11735E-01   -0.16627E-03 21744   0.185E-01    0.756E-01
DAV:  16    -0.115270354738E+02    0.85251E-02   -0.48001E-03 23208   0.142E-01    0.488E-01
DAV:  17    -0.115258842014E+02    0.11513E-02   -0.74323E-04 22240   0.199E-01    0.423E-01
DAV:  18    -0.115238093018E+02    0.20749E-02   -0.42162E-02 24792   0.219E-01    0.147E-01
DAV:  19    -0.115233422677E+02    0.46703E-03   -0.22455E-03 22296   0.148E-01    0.371E-02
DAV:  20    -0.115234657174E+02   -0.12345E-03   -0.36544E-04 22080   0.363E-02    0.880E-02
DAV:  21    -0.115238901090E+02   -0.42439E-03   -0.57744E-03 23176   0.127E-01    0.157E-01
DAV:  22    -0.115234445617E+02    0.44555E-03   -0.12236E-03 22568   0.852E-02    0.300E-02
DAV:  23    -0.115234491430E+02   -0.45812E-05   -0.73700E-05 21648   0.160E-02    0.667E-03
DAV:  24    -0.115234733387E+02   -0.24196E-04   -0.12851E-05 17416   0.126E-02    0.149E-02
DAV:  25    -0.115234789659E+02   -0.56272E-05   -0.21982E-05 15704   0.949E-03    0.262E-03
DAV:  26    -0.115234816139E+02   -0.26480E-05   -0.11106E-05 12824   0.685E-03    0.102E-02
DAV:  27    -0.115234806797E+02    0.93418E-06   -0.17183E-05 12944   0.792E-03    0.354E-03
DAV:  28    -0.115234808467E+02   -0.16702E-06   -0.12579E-07 11816   0.225E-03
  23 F= -.13036047E+02 E0= -.13033009E+02  d E =-.453178E+00  mag=     0.0000
       N       E                     dE             d eps       ncg     rms          rms(c)
DAV:   1     0.109255589621E+01    0.12616E+02   -0.42503E+03 24840   0.301E+02    0.372E+01
DAV:   2    -0.160682632395E+02   -0.17161E+02   -0.18247E+02 22112   0.745E+01    0.201E+01
DAV:   3    -0.199661419930E+02   -0.38979E+01   -0.16755E+02 25448   0.432E+01    0.164E+01
DAV:   4    -0.120498681222E+02    0.79163E+01   -0.33627E+01 24220   0.265E+01    0.871E+00
DAV:   5    -0.117673746689E+02    0.28249E+00   -0.32860E+00 21844   0.105E+01    0.858E+00
DAV:   6    -0.117741221694E+02   -0.67475E-02   -0.21808E-01 22756   0.375E+00    0.745E+00
DAV:   7    -0.117692171452E+02    0.49050E-02   -0.11985E-01 22048   0.307E+00    0.517E+00
DAV:   8    -0.117628791144E+02    0.63380E-02   -0.43211E-02 23664   0.208E+00    0.287E+00
DAV:   9    -0.117531092074E+02    0.97699E-02   -0.34478E-02 22216   0.184E+00    0.717E-01
DAV:  10    -0.117415232961E+02    0.11586E-01   -0.56770E-03 22464   0.711E-01    0.577E-01
DAV:  11    -0.117278413352E+02    0.13682E-01   -0.44654E-03 23064   0.567E-01    0.491E-01
DAV:  12    -0.117544560771E+02   -0.26615E-01   -0.20986E-01 23576   0.125E+00    0.917E-01
DAV:  13    -0.117388186080E+02    0.15637E-01   -0.56960E-03 21816   0.367E-01    0.802E-01
DAV:  14    -0.117179237239E+02    0.20895E-01   -0.22118E-02 24848   0.676E-01    0.116E-01
DAV:  15    -0.117204286386E+02   -0.25049E-02   -0.34113E-03 21504   0.361E-01    0.392E-01
DAV:  16    -0.117180828220E+02    0.23458E-02   -0.29487E-03 23576   0.300E-01    0.154E-01
DAV:  17    -0.117190781605E+02   -0.99534E-03   -0.32320E-04 22888   0.113E-01    0.254E-01
DAV:  18    -0.117177871733E+02    0.12910E-02   -0.63271E-04 22176   0.160E-01    0.403E-02
DAV:  19    -0.117178238091E+02   -0.36636E-04   -0.23260E-05 21488   0.316E-02    0.549E-02
DAV:  20    -0.117177725469E+02    0.51262E-04   -0.26577E-05 22776   0.275E-02    0.160E-02
DAV:  21    -0.117178386537E+02   -0.66107E-04   -0.60114E-05 22504   0.351E-02    0.647E-02
DAV:  22    -0.117178583389E+02   -0.19685E-04   -0.76646E-06 19744   0.244E-02    0.676E-02
DAV:  23    -0.117177961657E+02    0.62173E-04   -0.58536E-05 18584   0.500E-02    0.144E-02
DAV:  24    -0.117178032412E+02   -0.70755E-05   -0.20881E-06 17584   0.996E-03    0.183E-02
DAV:  25    -0.117178088928E+02   -0.56516E-05   -0.79738E-06 16064   0.228E-02    0.111E-02
DAV:  26    -0.117178135579E+02   -0.46651E-05   -0.48510E-07 12720   0.421E-03    0.700E-03
DAV:  27    -0.117178159971E+02   -0.24392E-05   -0.13123E-07 12464   0.280E-03    0.450E-03
DAV:  28    -0.117178177123E+02   -0.17152E-05   -0.12915E-07 11920   0.316E-03    0.498E-03
DAV:  29    -0.117178177260E+02   -0.13724E-07   -0.35125E-07 13160   0.290E-03
  24 F= -.13351183E+02 E0= -.13348318E+02  d E =-.768314E+00  mag=     0.0000
       N       E                     dE             d eps       ncg     rms          rms(c)
DAV:   1    -0.116996491174E+02    0.18169E-01   -0.27934E+01 20272   0.248E+01    0.449E-01
DAV:   2    -0.117282190000E+02   -0.28570E-01   -0.26600E-01 22160   0.347E+00    0.604E-01
DAV:   3    -0.117261515632E+02    0.20674E-02   -0.11368E-02 22072   0.811E-01    0.357E-01
DAV:   4    -0.117245005018E+02    0.16511E-02   -0.52662E-03 21480   0.504E-01    0.389E-01
DAV:   5    -0.117227703198E+02    0.17302E-02   -0.46741E-03 21320   0.429E-01    0.879E-02
DAV:   6    -0.117227768249E+02   -0.65051E-05   -0.50686E-04 23144   0.217E-01    0.522E-02
DAV:   7    -0.117227245053E+02    0.52320E-04   -0.10131E-04 22200   0.640E-02    0.332E-02
DAV:   8    -0.117227076746E+02    0.16831E-04   -0.42226E-05 22104   0.411E-02    0.108E-02
DAV:   9    -0.117227069823E+02    0.69228E-06   -0.14747E-05 21504   0.187E-02    0.242E-03
DAV:  10    -0.117227078351E+02   -0.85276E-06   -0.52140E-07 12604   0.482E-03
  25 F= -.13349879E+02 E0= -.13347143E+02  d E =-.767010E+00  mag=     0.0000
       N       E                     dE             d eps       ncg     rms          rms(c)
DAV:   1    -0.117084635618E+02    0.14243E-01   -0.13423E+01 20272   0.171E+01    0.326E-01
DAV:   2    -0.117234267994E+02   -0.14963E-01   -0.13336E-01 22776   0.248E+00    0.457E-01
DAV:   3    -0.117215503717E+02    0.18764E-02   -0.64059E-03 21920   0.601E-01    0.243E-01
DAV:   4    -0.117212482824E+02    0.30209E-03   -0.25796E-03 22328   0.373E-01    0.309E-01
DAV:   5    -0.117200785629E+02    0.11697E-02   -0.20153E-03 21496   0.318E-01    0.766E-02
DAV:   6    -0.117200828597E+02   -0.42968E-05   -0.52953E-04 22280   0.203E-01    0.465E-02
DAV:   7    -0.117200488456E+02    0.34014E-04   -0.78090E-05 22880   0.568E-02    0.303E-02
DAV:   8    -0.117200369095E+02    0.11936E-04   -0.32764E-05 22560   0.324E-02    0.101E-02
DAV:   9    -0.117200362624E+02    0.64704E-06   -0.34398E-06 16864   0.121E-02
  26 F= -.13351469E+02 E0= -.13348583E+02  d E =-.768600E+00  mag=     0.0000
       N       E                     dE             d eps       ncg     rms          rms(c)
DAV:   1    -0.117167433401E+02    0.32936E-02   -0.24770E+00 20272   0.740E+00    0.128E-01
DAV:   2    -0.117192363572E+02   -0.24930E-02   -0.24534E-02 21152   0.106E+00    0.143E-01
DAV:   3    -0.117193938748E+02   -0.15752E-03   -0.10806E-03 21864   0.242E-01    0.150E-01
DAV:   4    -0.117191220133E+02    0.27186E-03   -0.58938E-04 21808   0.189E-01    0.129E-01
DAV:   5    -0.117189465960E+02    0.17542E-03   -0.30944E-04 21680   0.117E-01    0.519E-02
DAV:   6    -0.117189238946E+02    0.22701E-04   -0.10710E-04 22608   0.876E-02    0.142E-02
DAV:   7    -0.117189213700E+02    0.25246E-05   -0.90300E-06 22776   0.207E-02    0.946E-03
DAV:   8    -0.117189206057E+02    0.76439E-06   -0.24029E-06 18568   0.820E-03
  27 F= -.13352963E+02 E0= -.13350092E+02  d E =-.149442E-02  mag=     0.0000
       N       E                     dE             d eps       ncg     rms          rms(c)
DAV:   1    -0.117076373867E+02    0.11284E-01   -0.91133E+00 20272   0.142E+01    0.255E-01
DAV:   2    -0.117165637300E+02   -0.89263E-02   -0.90494E-02 21672   0.204E+00    0.210E-01
DAV:   3    -0.117171363028E+02   -0.57257E-03   -0.38456E-03 22568   0.455E-01    0.270E-01
DAV:   4    -0.117166947720E+02    0.44153E-03   -0.22427E-03 21952   0.398E-01    0.276E-01
DAV:   5    -0.117159041051E+02    0.79067E-03   -0.10470E-03 21560   0.211E-01    0.125E-01
DAV:   6    -0.117157301426E+02    0.17396E-03   -0.37900E-04 21968   0.170E-01    0.228E-02
DAV:   7    -0.117157219225E+02    0.82201E-05   -0.31238E-05 22800   0.368E-02    0.137E-02
DAV:   8    -0.117157208288E+02    0.10937E-05   -0.37076E-06 21808   0.995E-03    0.778E-03
DAV:   9    -0.117157199906E+02    0.83814E-06   -0.41068E-06 22040   0.110E-02
  28 F= -.13354888E+02 E0= -.13352099E+02  d E =-.341892E-02  mag=     0.0000
       N       E                     dE             d eps       ncg     rms          rms(c)
DAV:   1    -0.116708076829E+02    0.44913E-01   -0.36647E+01 20272   0.287E+01    0.562E-01
DAV:   2    -0.117070567738E+02   -0.36249E-01   -0.36538E-01 22392   0.411E+00    0.373E-01
DAV:   3    -0.117112652097E+02   -0.42084E-02   -0.18387E-02 21712   0.101E+00    0.599E-01
DAV:   4    -0.117054827758E+02    0.57824E-02   -0.35623E-03 22440   0.504E-01    0.394E-01
DAV:   5    -0.117063134402E+02   -0.83066E-03   -0.96878E-03 22128   0.655E-01    0.405E-01
DAV:   6    -0.117037354785E+02    0.25780E-02   -0.49250E-03 22264   0.458E-01    0.903E-02
DAV:   7    -0.117038880438E+02   -0.15257E-03   -0.83389E-04 22520   0.212E-01    0.144E-01
DAV:   8    -0.117035803003E+02    0.30774E-03   -0.32317E-04 22000   0.109E-01    0.289E-02
DAV:   9    -0.117035739155E+02    0.63848E-05   -0.34489E-05 22180   0.365E-02    0.163E-02
DAV:  10    -0.117035694604E+02    0.44551E-05   -0.85156E-06 21984   0.180E-02    0.190E-03
DAV:  11    -0.117035696585E+02   -0.19809E-06   -0.36246E-07 12840   0.422E-03
  29 F= -.13353501E+02 E0= -.13350898E+02  d E =-.203236E-02  mag=     0.0000
       N       E                     dE             d eps       ncg     rms          rms(c)
DAV:   1    -0.116967431919E+02    0.68263E-02   -0.19308E+01 20272   0.208E+01    0.370E-01
DAV:   2    -0.117154448638E+02   -0.18702E-01   -0.18445E-01 22416   0.292E+00    0.292E-01
DAV:   3    -0.117198924676E+02   -0.44476E-02   -0.12727E-02 21592   0.751E-01    0.698E-01
DAV:   4    -0.117144714692E+02    0.54210E-02   -0.23785E-03 22328   0.411E-01    0.329E-01
DAV:   5    -0.117134685025E+02    0.10030E-02   -0.26597E-03 21904   0.354E-01    0.138E-01
DAV:   6    -0.117133197686E+02    0.14873E-03   -0.79581E-04 22104   0.254E-01    0.419E-02
DAV:   7    -0.117132841009E+02    0.35668E-04   -0.83390E-05 22560   0.582E-02    0.216E-02
DAV:   8    -0.117132790143E+02    0.50866E-05   -0.11817E-05 22328   0.176E-02    0.138E-02
DAV:   9    -0.117132754902E+02    0.35241E-05   -0.12321E-05 22168   0.191E-02    0.221E-03
DAV:  10    -0.117132756123E+02   -0.12204E-06   -0.35461E-07 12800   0.411E-03
  30 F= -.13355293E+02 E0= -.13352565E+02  d E =-.382454E-02  mag=     0.0000
       N       E                     dE             d eps       ncg     rms          rms(c)
DAV:   1    -0.117124426633E+02    0.83283E-03   -0.22261E+00 20272   0.713E+00    0.923E-02
DAV:   2    -0.117145873089E+02   -0.21446E-02   -0.21482E-02 22704   0.101E+00    0.813E-02
DAV:   3    -0.117146960862E+02   -0.10878E-03   -0.67666E-04 21872   0.186E-01    0.142E-01
DAV:   4    -0.117144893952E+02    0.20669E-03   -0.11421E-04 22216   0.839E-02    0.690E-02
DAV:   5    -0.117144119302E+02    0.77465E-04   -0.18657E-04 22096   0.102E-01    0.377E-02
DAV:   6    -0.117143914804E+02    0.20450E-04   -0.10933E-04 22336   0.798E-02    0.938E-03
DAV:   7    -0.117143933603E+02   -0.18799E-05   -0.78995E-06 22000   0.185E-02    0.817E-03
DAV:   8    -0.117143925283E+02    0.83202E-06   -0.14092E-06 13792   0.703E-03
  31 F= -.13360176E+02 E0= -.13357483E+02  d E =-.488297E-02  mag=     0.0000
       N       E                     dE             d eps       ncg     rms          rms(c)
DAV:   1    -0.116990699466E+02    0.15323E-01   -0.20077E+01 20272   0.215E+01    0.293E-01
DAV:   2    -0.117186215667E+02   -0.19552E-01   -0.19373E-01 22360   0.303E+00    0.268E-01
DAV:   3    -0.117204360159E+02   -0.18144E-02   -0.73883E-03 21648   0.665E-01    0.447E-01
DAV:   4    -0.117175678238E+02    0.28682E-02   -0.16862E-03 22392   0.333E-01    0.227E-01
DAV:   5    -0.117168530490E+02    0.71477E-03   -0.21642E-03 21888   0.352E-01    0.112E-01
DAV:   6    -0.117166289180E+02    0.22413E-03   -0.96430E-04 21864   0.239E-01    0.339E-02
DAV:   7    -0.117166371709E+02   -0.82528E-05   -0.10585E-04 23496   0.639E-02    0.373E-02
DAV:   8    -0.117166216235E+02    0.15547E-04   -0.36294E-05 22576   0.388E-02    0.157E-02
DAV:   9    -0.117166184787E+02    0.31448E-05   -0.16597E-05 21768   0.244E-02    0.836E-03
DAV:  10    -0.117166176735E+02    0.80525E-06   -0.14429E-06 13344   0.815E-03
  32 F= -.13373894E+02 E0= -.13371267E+02  d E =-.186010E-01  mag=     0.0000
       N       E                     dE             d eps       ncg     rms          rms(c)
DAV:   1    -0.116444635710E+02    0.72155E-01   -0.80913E+01 20272   0.434E+01    0.661E-01
DAV:   2    -0.117224350049E+02   -0.77971E-01   -0.77028E-01 22544   0.604E+00    0.551E-01
DAV:   3    -0.117289426369E+02   -0.65076E-02   -0.33373E-02 22024   0.149E+00    0.701E-01
DAV:   4    -0.117187246456E+02    0.10218E-01   -0.78867E-03 22784   0.771E-01    0.502E-01
DAV:   5    -0.117195990781E+02   -0.87443E-03   -0.14738E-02 23008   0.785E-01    0.548E-01
DAV:   6    -0.117145489194E+02    0.50502E-02   -0.67183E-03 21624   0.476E-01    0.138E-01
DAV:   7    -0.117143355059E+02    0.21341E-03   -0.58015E-04 23008   0.231E-01    0.784E-02
DAV:   8    -0.117143076515E+02    0.27854E-04   -0.23778E-04 22960   0.106E-01    0.701E-02
DAV:   9    -0.117142520446E+02    0.55607E-04   -0.12301E-04 22424   0.691E-02    0.297E-02
DAV:  10    -0.117142415787E+02    0.10466E-04   -0.29849E-05 21992   0.366E-02    0.138E-02
DAV:  11    -0.117142396752E+02    0.19035E-05   -0.32211E-06 14248   0.114E-02    0.269E-03
DAV:  12    -0.117142402222E+02   -0.54701E-06   -0.23653E-07 12736   0.301E-03
  33 F= -.13395305E+02 E0= -.13392709E+02  d E =-.400118E-01  mag=     0.0000
       N       E                     dE             d eps       ncg     rms          rms(c)
DAV:   1    -0.114048244235E+02    0.30942E+00   -0.33319E+02 20272   0.901E+01    0.179E+00
DAV:   2    -0.116945132067E+02   -0.28969E+00   -0.29436E+00 21128   0.119E+01    0.953E-01
DAV:   3    -0.116830561709E+02    0.11457E-01   -0.93656E-02 23144   0.199E+00    0.699E-01
DAV:   4    -0.116931463452E+02   -0.10090E-01   -0.40871E-02 22848   0.193E+00    0.832E-01
DAV:   5    -0.116817322718E+02    0.11414E-01   -0.22240E-02 22176   0.933E-01    0.480E-01
DAV:   6    -0.116719940190E+02    0.97383E-02   -0.88503E-03 23752   0.659E-01    0.787E-02
DAV:   7    -0.116720364385E+02   -0.42419E-04   -0.93906E-04 22704   0.258E-01    0.880E-02
DAV:   8    -0.116722411876E+02   -0.20475E-03   -0.60865E-04 21840   0.197E-01    0.138E-01
DAV:   9    -0.116720019924E+02    0.23920E-03   -0.42634E-04 22584   0.126E-01    0.558E-02
DAV:  10    -0.116720429499E+02   -0.40958E-04   -0.30656E-05 22024   0.422E-02    0.738E-02
DAV:  11    -0.116719564311E+02    0.86519E-04   -0.53246E-05 22336   0.442E-02    0.662E-03
DAV:  12    -0.116719564992E+02   -0.68016E-07   -0.21476E-06 17736   0.818E-03
  34 F= -.13403119E+02 E0= -.13400449E+02  d E =-.478258E-01  mag=     0.0000
       N       E                     dE             d eps       ncg     rms          rms(c)
DAV:   1    -0.116534930751E+02    0.18463E-01   -0.51031E+01 20272   0.345E+01    0.521E-01
DAV:   2    -0.117001083287E+02   -0.46615E-01   -0.47216E-01 21656   0.476E+00    0.466E-01
DAV:   3    -0.117003351506E+02   -0.22682E-03   -0.14101E-02 22424   0.830E-01    0.428E-01
DAV:   4    -0.117002464095E+02    0.88741E-04   -0.98977E-03 22808   0.750E-01    0.595E-01
DAV:   5    -0.116960385824E+02    0.42078E-02   -0.63973E-03 22336   0.541E-01    0.117E-01
DAV:   6    -0.116958473434E+02    0.19124E-03   -0.22448E-03 23192   0.426E-01    0.688E-02
DAV:   7    -0.116958759601E+02   -0.28617E-04   -0.26693E-04 22256   0.146E-01    0.532E-02
DAV:   8    -0.116958326877E+02    0.43272E-04   -0.88775E-05 22536   0.586E-02    0.241E-02
DAV:   9    -0.116958225327E+02    0.10155E-04   -0.35971E-05 22392   0.369E-02    0.360E-03
DAV:  10    -0.116958229611E+02   -0.42844E-06   -0.13572E-06 14456   0.851E-03
  35 F= -.13406684E+02 E0= -.13403978E+02  d E =-.513903E-01  mag=     0.0000
       N       E                     dE             d eps       ncg     rms          rms(c)
DAV:   1    -0.116997475631E+02   -0.39250E-02   -0.23691E+00 20272   0.739E+00    0.140E-01
DAV:   2    -0.117020713707E+02   -0.23238E-02   -0.23508E-02 22768   0.105E+00    0.126E-01
DAV:   3    -0.117023201240E+02   -0.24875E-03   -0.10847E-03 22328   0.259E-01    0.155E-01
DAV:   4    -0.117020713136E+02    0.24881E-03   -0.91260E-04 22352   0.234E-01    0.148E-01
DAV:   5    -0.117018458176E+02    0.22550E-03   -0.43630E-04 21968   0.123E-01    0.329E-02
DAV:   6    -0.117018415903E+02    0.42273E-05   -0.87513E-05 22360   0.879E-02    0.150E-02
DAV:   7    -0.117018373110E+02    0.42793E-05   -0.13439E-05 22168   0.320E-02    0.102E-02
DAV:   8    -0.117018354117E+02    0.18993E-05   -0.46161E-06 21592   0.115E-02    0.340E-03
DAV:   9    -0.117018352064E+02    0.20528E-06   -0.12675E-06 13224   0.653E-03
  36 F= -.13413026E+02 E0= -.13410325E+02  d E =-.634281E-02  mag=    -0.0000
       N       E                     dE             d eps       ncg     rms          rms(c)
DAV:   1    -0.116936696495E+02    0.81658E-02   -0.21385E+01 20272   0.223E+01    0.385E-01
DAV:   2    -0.117141631890E+02   -0.20494E-01   -0.20867E-01 22520   0.314E+00    0.321E-01
DAV:   3    -0.117141055719E+02    0.57617E-04   -0.68503E-03 22536   0.600E-01    0.280E-01
DAV:   4    -0.117153347327E+02   -0.12292E-02   -0.60629E-03 22552   0.584E-01    0.504E-01
DAV:   5    -0.117123778645E+02    0.29569E-02   -0.36968E-03 21872   0.381E-01    0.922E-02
DAV:   6    -0.117123657018E+02    0.12163E-04   -0.95226E-04 22288   0.278E-01    0.433E-02
DAV:   7    -0.117123360034E+02    0.29698E-04   -0.12029E-04 21656   0.979E-02    0.346E-02
DAV:   8    -0.117123152412E+02    0.20762E-04   -0.50899E-05 22024   0.382E-02    0.106E-02
DAV:   9    -0.117123126427E+02    0.25985E-05   -0.11076E-05 23168   0.202E-02    0.219E-03
DAV:  10    -0.117123125309E+02    0.11181E-06   -0.59522E-07 13752   0.501E-03
  37 F= -.13424908E+02 E0= -.13422232E+02  d E =-.182244E-01  mag=    -0.0000
       N       E                     dE             d eps       ncg     rms          rms(c)
DAV:   1    -0.116347409698E+02    0.77572E-01   -0.86352E+01 20272   0.450E+01    0.666E-01
DAV:   2    -0.117152660686E+02   -0.80525E-01   -0.81679E-01 22472   0.623E+00    0.563E-01
DAV:   3    -0.117140559870E+02    0.12101E-02   -0.22530E-02 21832   0.997E-01    0.637E-01
DAV:   4    -0.117113296340E+02    0.27264E-02   -0.26184E-03 22000   0.436E-01    0.396E-01
DAV:   5    -0.117091593694E+02    0.21703E-02   -0.11596E-02 21952   0.686E-01    0.320E-01
DAV:   6    -0.117082622640E+02    0.89711E-03   -0.40883E-03 23048   0.537E-01    0.845E-02
DAV:   7    -0.117081484363E+02    0.11383E-03   -0.32211E-04 21944   0.150E-01    0.529E-02
DAV:   8    -0.117080977725E+02    0.50664E-04   -0.18074E-04 21896   0.666E-02    0.164E-02
DAV:   9    -0.117080940116E+02    0.37609E-05   -0.19844E-05 23968   0.255E-02    0.528E-03
DAV:  10    -0.117080941160E+02   -0.10442E-06   -0.72716E-07 13904   0.674E-03
  38 F= 0.12686768E+04 E0= 0.12686796E+04  d E =0.128208E+04  mag=    -0.0000
       N       E                     dE             d eps       ncg     rms          rms(c)
DAV:   1    -0.117003477005E+02    0.77463E-02   -0.14213E+01 20272   0.181E+01    0.273E-01
DAV:   2    -0.117142346735E+02   -0.13887E-01   -0.14096E-01 22600   0.259E+00    0.228E-01
DAV:   3    -0.117140702367E+02    0.16444E-03   -0.39884E-03 22304   0.435E-01    0.264E-01
DAV:   4    -0.117135314639E+02    0.53877E-03   -0.53336E-04 22464   0.182E-01    0.158E-01
DAV:   5    -0.117131916663E+02    0.33980E-03   -0.16677E-03 22776   0.277E-01    0.133E-01
DAV:   6    -0.117130152992E+02    0.17637E-03   -0.90875E-04 22440   0.245E-01    0.301E-02
DAV:   7    -0.117130020954E+02    0.13204E-04   -0.59598E-05 22352   0.649E-02    0.195E-02
DAV:   8    -0.117129972454E+02    0.48500E-05   -0.15319E-05 22128   0.190E-02    0.925E-03
DAV:   9    -0.117129959057E+02    0.13397E-05   -0.79748E-06 21872   0.162E-02    0.153E-03
DAV:  10    -0.117129960174E+02   -0.11170E-06   -0.24627E-07 12096   0.341E-03
  39 F= 0.11183437E+04 E0= 0.11183464E+04  d E =0.113175E+04  mag=     0.0000
       N       E                     dE             d eps       ncg     rms          rms(c)
DAV:   1    -0.117165276849E+02   -0.35318E-02   -0.17707E+00 20272   0.629E+00    0.832E-02
DAV:   2    -0.117182655947E+02   -0.17379E-02   -0.17262E-02 22304   0.885E-01    0.797E-02
DAV:   3    -0.117183605409E+02   -0.94946E-04   -0.59292E-04 21800   0.182E-01    0.134E-01
DAV:   4    -0.117181673495E+02    0.19319E-03   -0.12191E-04 22648   0.891E-02    0.614E-02
DAV:   5    -0.117180929400E+02    0.74409E-04   -0.29238E-04 21776   0.808E-02    0.292E-02
DAV:   6    -0.117180872348E+02    0.57052E-05   -0.27384E-05 22752   0.316E-02    0.104E-02
DAV:   7    -0.117180857119E+02    0.15229E-05   -0.35241E-06 19440   0.166E-02    0.633E-03
DAV:   8    -0.117180851772E+02    0.53472E-06   -0.20701E-06 14104   0.896E-03
  40 F= 0.54333362E+03 E0= 0.54333632E+03  d E =-.575010E+03  mag=     0.0000
       N       E                     dE             d eps       ncg     rms          rms(c)
DAV:   1    -0.117181237644E+02   -0.38052E-04   -0.15969E+01 20272   0.189E+01    0.243E-01
DAV:   2    -0.117335891294E+02   -0.15465E-01   -0.15440E-01 21776   0.265E+00    0.231E-01
DAV:   3    -0.117340883762E+02   -0.49925E-03   -0.49064E-03 21768   0.511E-01    0.357E-01
DAV:   4    -0.117328105353E+02    0.12778E-02   -0.85500E-04 22872   0.245E-01    0.179E-01
DAV:   5    -0.117321619443E+02    0.64859E-03   -0.23099E-03 22080   0.230E-01    0.100E-01
DAV:   6    -0.117320828174E+02    0.79127E-04   -0.39550E-04 21840   0.126E-01    0.347E-02
DAV:   7    -0.117320665440E+02    0.16273E-04   -0.45265E-05 22824   0.613E-02    0.214E-02
DAV:   8    -0.117320599245E+02    0.66196E-05   -0.24019E-05 21648   0.279E-02    0.951E-03
DAV:   9    -0.117320584355E+02    0.14890E-05   -0.53906E-06 21768   0.120E-02    0.363E-03
DAV:  10    -0.117320583821E+02    0.53357E-07   -0.30737E-07 12192   0.423E-03
  41 F= 0.73146113E+02 E0= 0.73148838E+02  d E =-.104520E+04  mag=     0.0000
       N       E                     dE             d eps       ncg     rms          rms(c)
DAV:   1    -0.116995376515E+02    0.32521E-01   -0.64304E+01 20272   0.382E+01    0.475E-01
DAV:   2    -0.117597875778E+02   -0.60250E-01   -0.60680E-01 21872   0.528E+00    0.440E-01
DAV:   3    -0.117584824676E+02    0.13051E-02   -0.14508E-02 22808   0.816E-01    0.461E-01
DAV:   4    -0.117571935836E+02    0.12889E-02   -0.18936E-03 22480   0.374E-01    0.340E-01
DAV:   5    -0.117545882174E+02    0.26054E-02   -0.78525E-03 22120   0.455E-01    0.188E-01
DAV:   6    -0.117542903971E+02    0.29782E-03   -0.17564E-03 22632   0.232E-01    0.648E-02
DAV:   7    -0.117542422868E+02    0.48110E-04   -0.17402E-04 22832   0.116E-01    0.390E-02
DAV:   8    -0.117542257498E+02    0.16537E-04   -0.83362E-05 21664   0.607E-02    0.972E-03
DAV:   9    -0.117542247884E+02    0.96134E-06   -0.90328E-06 22400   0.165E-02
  42 F= -.13450246E+02 E0= -.13447534E+02  d E =-.113179E+04  mag=     0.0000
       N       E                     dE             d eps       ncg     rms          rms(c)
DAV:   1    -0.115727804383E+02    0.18145E+00   -0.26384E+02 20272   0.787E+01    0.106E+00
DAV:   2    -0.118009198689E+02   -0.22814E+00   -0.23026E+00 21360   0.104E+01    0.969E-01
DAV:   3    -0.118033674750E+02   -0.24476E-02   -0.86225E-02 23304   0.219E+00    0.871E-01
DAV:   4    -0.117879232601E+02    0.15444E-01   -0.34187E-02 22752   0.157E+00    0.641E-01
DAV:   5    -0.117818751846E+02    0.60481E-02   -0.26035E-02 22368   0.902E-01    0.509E-01
DAV:   6    -0.117793626942E+02    0.25125E-02   -0.11699E-02 22288   0.845E-01    0.204E-01
DAV:   7    -0.117787752942E+02    0.58740E-03   -0.15918E-03 22816   0.328E-01    0.915E-02
DAV:   8    -0.117787716655E+02    0.36287E-05   -0.18366E-04 22792   0.785E-02    0.458E-02
DAV:   9    -0.117787784351E+02   -0.67696E-05   -0.13905E-04 22784   0.944E-02    0.465E-02
DAV:  10    -0.117787505236E+02    0.27912E-04   -0.72626E-05 22816   0.573E-02    0.145E-02
DAV:  11    -0.117787481985E+02    0.23251E-05   -0.76525E-06 15080   0.173E-02    0.516E-03
DAV:  12    -0.117787496224E+02   -0.14239E-05   -0.12754E-06 12832   0.677E-03    0.241E-03
DAV:  13    -0.117787519751E+02   -0.23527E-05   -0.29294E-07 14088   0.327E-03    0.170E-03
DAV:  14    -0.117787546243E+02   -0.26492E-05   -0.22954E-07 14376   0.209E-03    0.742E-04
DAV:  15    -0.117787573317E+02   -0.27074E-05   -0.26772E-07 15560   0.179E-03    0.489E-04
DAV:  16    -0.117787585861E+02   -0.12543E-05   -0.90490E-08 13304   0.990E-04    0.111E-03
DAV:  17    -0.117787592033E+02   -0.61723E-06   -0.76240E-08 12824   0.119E-03
  43 F= -.13493487E+02 E0= -.13490526E+02  d E =-.113184E+04  mag=     0.0000
       N       E                     dE             d eps       ncg     rms          rms(c)
DAV:   1    -0.109297926906E+02    0.84897E+00   -0.11478E+03 20272   0.173E+02    0.492E+00
DAV:   2    -0.118416477597E+02   -0.91186E+00   -0.93230E+00 22064   0.209E+01    0.276E+00
DAV:   3    -0.118133750014E+02    0.28273E-01   -0.22563E-01 24192   0.297E+00    0.178E+00
DAV:   4    -0.118140967715E+02   -0.72177E-03   -0.17924E-01 23368   0.284E+00    0.139E+00
DAV:   5    -0.117841166820E+02    0.29980E-01   -0.10867E-01 22848   0.253E+00    0.802E-01
DAV:   6    -0.117809248124E+02    0.31919E-02   -0.22539E-02 22736   0.947E-01    0.283E-01
DAV:   7    -0.117809071456E+02    0.17667E-04   -0.15396E-03 23336   0.299E-01    0.153E-01
DAV:   8    -0.117808142234E+02    0.92922E-04   -0.79785E-04 22208   0.289E-01    0.705E-02
DAV:   9    -0.117807945543E+02    0.19669E-04   -0.85632E-05 22520   0.799E-02    0.342E-02
DAV:  10    -0.117807956374E+02   -0.10832E-05   -0.14996E-05 22596   0.253E-02    0.889E-03
DAV:  11    -0.117807985447E+02   -0.29073E-05   -0.34814E-06 20676   0.123E-02    0.526E-03
DAV:  12    -0.117808052965E+02   -0.67518E-05   -0.10028E-06 15244   0.542E-03    0.210E-03
DAV:  13    -0.117808142577E+02   -0.89612E-05   -0.83992E-07 16076   0.411E-03    0.137E-03
DAV:  14    -0.117808241166E+02   -0.98590E-05   -0.10373E-06 16036   0.462E-03    0.156E-03
DAV:  15    -0.117808313381E+02   -0.72214E-05   -0.88721E-07 16132   0.406E-03    0.665E-04
DAV:  16    -0.117808336124E+02   -0.22744E-05   -0.11312E-07 13092   0.180E-03    0.468E-04
DAV:  17    -0.117808361138E+02   -0.25014E-05   -0.23928E-07 15528   0.116E-03    0.128E-04
DAV:  18    -0.117808367742E+02   -0.66041E-06   -0.36845E-08 13016   0.571E-04
  44 F= -.13521084E+02 E0= -.13518731E+02  d E =-.113186E+04  mag=    -0.0000
       N       E                     dE             d eps       ncg     rms          rms(c)
DAV:   1     0.125276611931E+01    0.13034E+02   -0.47562E+03 21440   0.355E+02    0.421E+01
DAV:   2    -0.132292081967E+02   -0.14482E+02   -0.15372E+02 21672   0.687E+01    0.176E+01
DAV:   3    -0.128387280450E+02    0.39048E+00   -0.28910E+01 24096   0.334E+01    0.137E+01
DAV:   4    -0.118642708306E+02    0.97446E+00   -0.13955E+01 24264   0.179E+01    0.108E+01
DAV:   5    -0.117914349030E+02    0.72836E-01   -0.37726E-01 21704   0.489E+00    0.853E+00
DAV:   6    -0.117632243586E+02    0.28211E-01   -0.59433E-02 23120   0.263E+00    0.683E+00
DAV:   7    -0.117411529527E+02    0.22071E-01   -0.18215E-01 23344   0.412E+00    0.261E+00
DAV:   8    -0.117354728995E+02    0.56801E-02   -0.21507E-02 22592   0.108E+00    0.112E+00
DAV:   9    -0.117326350225E+02    0.28379E-02   -0.88119E-03 24056   0.744E-01    0.508E-01
DAV:  10    -0.117319865910E+02    0.64843E-03   -0.19519E-03 22136   0.322E-01    0.999E-02
DAV:  11    -0.117318860994E+02    0.10049E-03   -0.44124E-04 23320   0.204E-01    0.646E-02
DAV:  12    -0.117318161858E+02    0.69914E-04   -0.14437E-04 22848   0.108E-01    0.534E-02
DAV:  13    -0.117318039696E+02    0.12216E-04   -0.82992E-05 23480   0.816E-02    0.130E-02
DAV:  14    -0.117318369543E+02   -0.32985E-04   -0.27766E-05 21728   0.318E-02    0.190E-02
DAV:  15    -0.117318575562E+02   -0.20602E-04   -0.38608E-06 17584   0.149E-02    0.158E-02
DAV:  16    -0.117318934715E+02   -0.35915E-04   -0.95639E-06 21880   0.185E-02    0.281E-03
DAV:  17    -0.117319188063E+02   -0.25335E-04   -0.18433E-06 16624   0.552E-03    0.143E-03
DAV:  18    -0.117319373380E+02   -0.18532E-04   -0.12516E-06 16136   0.499E-03    0.855E-04
DAV:  19    -0.117319451115E+02   -0.77735E-05   -0.19031E-07 13416   0.221E-03    0.892E-04
DAV:  20    -0.117319487488E+02   -0.36373E-05   -0.10413E-07 12628   0.119E-03    0.463E-04
DAV:  21    -0.117319497361E+02   -0.98726E-06   -0.24449E-08 12648   0.775E-04
  45 F= -.13553437E+02 E0= -.13552265E+02  d E =-.113190E+04  mag=    -0.0000
       N       E                     dE             d eps       ncg     rms          rms(c)
DAV:   1    -0.117269756774E+02    0.49731E-02   -0.14750E+01 20272   0.183E+01    0.194E-01
DAV:   2    -0.117411883901E+02   -0.14213E-01   -0.14253E-01 22648   0.259E+00    0.200E-01
DAV:   3    -0.117407496661E+02    0.43872E-03   -0.32409E-03 23064   0.361E-01    0.169E-01
DAV:   4    -0.117400459664E+02    0.70370E-03   -0.88794E-04 21896   0.157E-01    0.789E-02
DAV:   5    -0.117399167086E+02    0.12926E-03   -0.11620E-03 22472   0.165E-01    0.349E-02
DAV:   6    -0.117399119899E+02    0.47187E-05   -0.73782E-05 22756   0.780E-02    0.273E-02
DAV:   7    -0.117399061095E+02    0.58805E-05   -0.25978E-05 23240   0.444E-02    0.133E-02
DAV:   8    -0.117399037919E+02    0.23176E-05   -0.24428E-05 22256   0.238E-02    0.322E-03
DAV:   9    -0.117399036289E+02    0.16301E-06   -0.50199E-07 13448   0.492E-03
  46 F= -.13565662E+02 E0= -.13564650E+02  d E =-.122254E-01  mag=    -0.0000
       N       E                     dE             d eps       ncg     rms          rms(c)
DAV:   1    -0.116522130787E+02    0.87691E-01   -0.13507E+02 20272   0.561E+01    0.646E-01
DAV:   2    -0.117768819936E+02   -0.12467E+00   -0.12566E+00 21336   0.771E+00    0.614E-01
DAV:   3    -0.117725405929E+02    0.43414E-02   -0.30959E-02 23520   0.113E+00    0.485E-01
DAV:   4    -0.117676470742E+02    0.48935E-02   -0.96917E-03 23096   0.744E-01    0.298E-01
DAV:   5    -0.117657655489E+02    0.18815E-02   -0.13446E-02 23048   0.798E-01    0.899E-02
DAV:   6    -0.117658088666E+02   -0.43318E-04   -0.98639E-04 22824   0.276E-01    0.736E-02
DAV:   7    -0.117657921914E+02    0.16675E-04   -0.17359E-04 23064   0.756E-02    0.243E-02
DAV:   8    -0.117657853566E+02    0.68348E-05   -0.54955E-05 23600   0.716E-02    0.444E-03
DAV:   9    -0.117657854276E+02   -0.71010E-07   -0.39008E-06 22208   0.128E-02
  47 F= -.13602080E+02 E0= -.13601589E+02  d E =-.486434E-01  mag=    -0.0000
       N       E                     dE             d eps       ncg     rms          rms(c)
DAV:   1    -0.113850723212E+02    0.38071E+00   -0.56985E+02 20272   0.119E+02    0.203E+00
DAV:   2    -0.118549841943E+02   -0.46991E+00   -0.48202E+00 22552   0.153E+01    0.135E+00
DAV:   3    -0.118333345850E+02    0.21650E-01   -0.14160E-01 22920   0.266E+00    0.904E-01
DAV:   4    -0.118198774142E+02    0.13457E-01   -0.38116E-02 23032   0.161E+00    0.576E-01
DAV:   5    -0.118151110661E+02    0.47663E-02   -0.35160E-02 22552   0.127E+00    0.170E-01
DAV:   6    -0.118150399606E+02    0.71105E-04   -0.21684E-03 23092   0.354E-01    0.130E-01
DAV:   7    -0.118150853169E+02   -0.45356E-04   -0.23809E-04 23152   0.870E-02    0.437E-02
DAV:   8    -0.118150723860E+02    0.12931E-04   -0.15201E-04 24512   0.115E-01    0.159E-02
DAV:   9    -0.118150752605E+02   -0.28745E-05   -0.12004E-05 21992   0.254E-02    0.826E-03
DAV:  10    -0.118150757515E+02   -0.49101E-06   -0.95406E-07 13612   0.794E-03
  48 F= -.13662337E+02 E0= -.13662075E+02  d E =-.108900E+00  mag=     0.0000
       N       E                     dE             d eps       ncg     rms          rms(c)
DAV:   1    -0.899891443421E+01    0.28162E+01   -0.25462E+03 20272   0.270E+02    0.141E+01
DAV:   2    -0.118788755447E+02   -0.28800E+01   -0.30208E+01 22496   0.368E+01    0.607E+00
DAV:   3    -0.117829530586E+02    0.95922E-01   -0.14913E+00 23224   0.937E+00    0.346E+00
DAV:   4    -0.117539103034E+02    0.29043E-01   -0.45094E-01 23096   0.668E+00    0.267E+00
DAV:   5    -0.117240361181E+02    0.29874E-01   -0.14982E-01 22376   0.278E+00    0.129E+00
DAV:   6    -0.117233145982E+02    0.72152E-03   -0.28118E-02 22424   0.139E+00    0.496E-01
DAV:   7    -0.117224353544E+02    0.87924E-03   -0.55201E-03 22656   0.731E-01    0.255E-01
DAV:   8    -0.117224180896E+02    0.17265E-04   -0.77612E-04 24696   0.203E-01    0.769E-02
DAV:   9    -0.117224113344E+02    0.67552E-05   -0.14739E-04 22384   0.113E-01    0.189E-02
DAV:  10    -0.117224109001E+02    0.43426E-06   -0.10026E-05 22496   0.246E-02    0.116E-02
DAV:  11    -0.117224118503E+02   -0.95018E-06   -0.57001E-06 16564   0.230E-02
  49 F= -.13560467E+02 E0= -.13559033E+02  d E =-.703034E-02  mag=     0.0000
       N       E                     dE             d eps       ncg     rms          rms(c)
DAV:   1    -0.104734172075E+02    0.12490E+01   -0.16956E+03 20272   0.220E+02    0.640E+00
DAV:   2    -0.119158226108E+02   -0.14424E+01   -0.14861E+01 22440   0.274E+01    0.449E+00
DAV:   3    -0.118699067108E+02    0.45916E-01   -0.31990E-01 23524   0.395E+00    0.286E+00
DAV:   4    -0.118326014089E+02    0.37305E-01   -0.99170E-02 22540   0.236E+00    0.161E+00
DAV:   5    -0.118266491017E+02    0.59523E-02   -0.63472E-02 23276   0.197E+00    0.517E-01
DAV:   6    -0.118262511242E+02    0.39798E-03   -0.10014E-02 22428   0.102E+00    0.348E-01
DAV:   7    -0.118262166539E+02    0.34470E-04   -0.18918E-03 22980   0.355E-01    0.956E-02
DAV:   8    -0.118262171416E+02   -0.48769E-06   -0.19448E-04 23296   0.127E-01    0.463E-02
DAV:   9    -0.118262263581E+02   -0.92165E-05   -0.26444E-05 22600   0.375E-02    0.147E-02
DAV:  10    -0.118262324569E+02   -0.60988E-05   -0.29624E-06 17524   0.116E-02    0.521E-03
DAV:  11    -0.118262368337E+02   -0.43768E-05   -0.89066E-07 14224   0.649E-03    0.206E-03
DAV:  12    -0.118262395759E+02   -0.27422E-05   -0.42486E-07 13380   0.472E-03    0.750E-04
DAV:  13    -0.118262419600E+02   -0.23841E-05   -0.11687E-07 12940   0.216E-03    0.393E-04
DAV:  14    -0.118262442334E+02   -0.22734E-05   -0.10541E-07 13024   0.111E-03    0.545E-04
DAV:  15    -0.118262451267E+02   -0.89329E-06   -0.20968E-08 11924   0.743E-04
  50 F= -.13674449E+02 E0= -.13674191E+02  d E =-.121012E+00  mag=     0.0000
       N       E                     dE             d eps       ncg     rms          rms(c)
DAV:   1    -0.117547156829E+02    0.71529E-01   -0.89255E+01 20272   0.460E+01    0.627E-01
DAV:   2    -0.118386261935E+02   -0.83911E-01   -0.86747E-01 22784   0.657E+00    0.565E-01
DAV:   3    -0.118348391730E+02    0.37870E-02   -0.27867E-02 23092   0.127E+00    0.401E-01
DAV:   4    -0.118317970487E+02    0.30421E-02   -0.65172E-03 22860   0.666E-01    0.271E-01
DAV:   5    -0.118306986735E+02    0.10984E-02   -0.94169E-03 22072   0.603E-01    0.719E-02
DAV:   6    -0.118306545098E+02    0.44164E-04   -0.40308E-04 22988   0.139E-01    0.524E-02
DAV:   7    -0.118306433621E+02    0.11148E-04   -0.94783E-05 22688   0.560E-02    0.219E-02
DAV:   8    -0.118306418192E+02    0.15429E-05   -0.29305E-05 23360   0.554E-02    0.419E-03
DAV:   9    -0.118306432845E+02   -0.14654E-05   -0.28881E-06 17936   0.122E-02    0.288E-03
DAV:  10    -0.118306438142E+02   -0.52961E-06   -0.18503E-07 12952   0.336E-03
  51 F= -.13678403E+02 E0= -.13678150E+02  d E =-.124966E+00  mag=    -0.0000
       N       E                     dE             d eps       ncg     rms          rms(c)
DAV:   1    -0.118271295179E+02    0.35138E-02   -0.40821E+00 20272   0.979E+00    0.123E-01
DAV:   2    -0.118310105412E+02   -0.38810E-02   -0.40046E-02 22648   0.142E+00    0.127E-01
DAV:   3    -0.118308611785E+02    0.14936E-03   -0.12354E-03 22728   0.258E-01    0.938E-02
DAV:   4    -0.118307071912E+02    0.15399E-03   -0.26247E-04 23168   0.128E-01    0.655E-02
DAV:   5    -0.118306373884E+02    0.69803E-04   -0.54672E-04 22024   0.144E-01    0.172E-02
DAV:   6    -0.118306392767E+02   -0.18883E-05   -0.18109E-05 22192   0.347E-02    0.154E-02
DAV:   7    -0.118306356294E+02    0.36473E-05   -0.12275E-05 22544   0.179E-02    0.429E-03
DAV:   8    -0.118306354644E+02    0.16498E-06   -0.17289E-06 13720   0.137E-02
  52 F= -.13678621E+02 E0= -.13678367E+02  d E =-.125185E+00  mag=    -0.0000
       N       E                     dE             d eps       ncg     rms          rms(c)
DAV:   1    -0.118270356856E+02    0.35999E-02   -0.10973E+01 20272   0.160E+01    0.179E-01
DAV:   2    -0.118374592329E+02   -0.10424E-01   -0.10469E-01 21280   0.226E+00    0.179E-01
DAV:   3    -0.118370876699E+02    0.37156E-03   -0.25487E-03 23440   0.339E-01    0.146E-01
DAV:   4    -0.118366692568E+02    0.41841E-03   -0.65312E-04 23336   0.210E-01    0.918E-02
DAV:   5    -0.118364816727E+02    0.18758E-03   -0.13471E-03 22328   0.227E-01    0.261E-02
DAV:   6    -0.118364937530E+02   -0.12080E-04   -0.59058E-05 22312   0.628E-02    0.258E-02
DAV:   7    -0.118364837947E+02    0.99583E-05   -0.22796E-05 22936   0.274E-02    0.998E-03
DAV:   8    -0.118364821010E+02    0.16937E-05   -0.11945E-05 22456   0.264E-02    0.204E-03
DAV:   9    -0.118364821643E+02   -0.63235E-07   -0.54640E-07 13080   0.527E-03
  53 F= -.13687039E+02 E0= -.13686783E+02  d E =-.841789E-02  mag=    -0.0000
       N       E                     dE             d eps       ncg     rms          rms(c)
DAV:   1    -0.117725242709E+02    0.63958E-01   -0.90974E+01 20272   0.465E+01    0.490E-01
DAV:   2    -0.118560757129E+02   -0.83551E-01   -0.84018E-01 21568   0.641E+00    0.510E-01
DAV:   3    -0.118532767073E+02    0.27990E-02   -0.19706E-02 23688   0.921E-01    0.416E-01
DAV:   4    -0.118497860888E+02    0.34906E-02   -0.53950E-03 23288   0.589E-01    0.257E-01
DAV:   5    -0.118482755286E+02    0.15106E-02   -0.99090E-03 22952   0.624E-01    0.800E-02
DAV:   6    -0.118483710553E+02   -0.95527E-04   -0.54748E-04 22064   0.191E-01    0.752E-02
DAV:   7    -0.118483140800E+02    0.56975E-04   -0.19589E-04 23200   0.852E-02    0.246E-02
DAV:   8    -0.118483046210E+02    0.94590E-05   -0.80575E-05 22944   0.811E-02    0.740E-03
DAV:   9    -0.118483047748E+02   -0.15373E-06   -0.54192E-06 22984   0.158E-02
  54 F= -.13704641E+02 E0= -.13704379E+02  d E =-.260201E-01  mag=    -0.0000
       N       E                     dE             d eps       ncg     rms          rms(c)
DAV:   1    -0.115691664363E+02    0.27914E+00   -0.37668E+02 20272   0.967E+01    0.115E+00
DAV:   2    -0.118855918207E+02   -0.31643E+00   -0.31980E+00 21232   0.126E+01    0.105E+00
DAV:   3    -0.118737779844E+02    0.11814E-01   -0.71362E-02 24000   0.170E+00    0.793E-01
DAV:   4    -0.118599252250E+02    0.13853E-01   -0.28651E-02 23080   0.119E+00    0.409E-01
DAV:   5    -0.118574762239E+02    0.24490E-02   -0.19191E-02 23192   0.992E-01    0.180E-01
DAV:   6    -0.118574815132E+02   -0.52893E-05   -0.21819E-03 22344   0.441E-01    0.126E-01
DAV:   7    -0.118575156944E+02   -0.34181E-04   -0.28524E-04 23384   0.113E-01    0.302E-02
DAV:   8    -0.118575133923E+02    0.23021E-05   -0.32482E-05 23944   0.555E-02    0.137E-02
DAV:   9    -0.118575142988E+02   -0.90652E-06   -0.45532E-06 21128   0.142E-02
  55 F= -.13719212E+02 E0= -.13718941E+02  d E =-.405908E-01  mag=    -0.0000
       N       E                     dE             d eps       ncg     rms          rms(c)
DAV:   1    -0.118613157920E+02   -0.38024E-02   -0.10853E+01 20272   0.155E+01    0.179E-01
DAV:   2    -0.118712151053E+02   -0.98993E-02   -0.10128E-01 22816   0.223E+00    0.182E-01
DAV:   3    -0.118708740645E+02    0.34104E-03   -0.24156E-03 22072   0.338E-01    0.141E-01
DAV:   4    -0.118705121410E+02    0.36192E-03   -0.54143E-04 22552   0.159E-01    0.882E-02
DAV:   5    -0.118703443147E+02    0.16783E-03   -0.98325E-04 23008   0.241E-01    0.219E-02
DAV:   6    -0.118703549322E+02   -0.10618E-04   -0.16484E-04 22800   0.108E-01    0.265E-02
DAV:   7    -0.118703539840E+02    0.94814E-06   -0.10240E-05 22688   0.237E-02    0.201E-02
DAV:   8    -0.118703502377E+02    0.37463E-05   -0.28814E-05 22488   0.272E-02    0.170E-03
DAV:   9    -0.118703508141E+02   -0.57635E-06   -0.62721E-07 13400   0.670E-03
  56 F= -.13738687E+02 E0= -.13738417E+02  d E =-.194754E-01  mag=    -0.0000
       N       E                     dE             d eps       ncg     rms          rms(c)
DAV:   1    -0.118238095540E+02    0.46541E-01   -0.99286E+01 20272   0.475E+01    0.594E-01
DAV:   2    -0.119118540352E+02   -0.88044E-01   -0.90130E-01 22416   0.667E+00    0.541E-01
DAV:   3    -0.119084670832E+02    0.33870E-02   -0.22223E-02 23048   0.106E+00    0.400E-01
DAV:   4    -0.119053974699E+02    0.30696E-02   -0.56694E-03 22680   0.529E-01    0.239E-01
DAV:   5    -0.119042793519E+02    0.11181E-02   -0.78280E-03 22952   0.775E-01    0.596E-02
DAV:   6    -0.119042995105E+02   -0.20159E-04   -0.14069E-03 23000   0.361E-01    0.655E-02
DAV:   7    -0.119042995817E+02   -0.71170E-07   -0.98040E-05 22552   0.706E-02    0.452E-02
DAV:   8    -0.119042806422E+02    0.18939E-04   -0.12600E-04 22912   0.664E-02    0.510E-03
DAV:   9    -0.119042821429E+02   -0.15006E-05   -0.42439E-06 20936   0.158E-02    0.275E-03
DAV:  10    -0.119042831780E+02   -0.10352E-05   -0.32190E-07 13144   0.467E-03    0.217E-03
DAV:  11    -0.119042851268E+02   -0.19487E-05   -0.29859E-07 12952   0.356E-03    0.478E-04
DAV:  12    -0.119042861156E+02   -0.98879E-06   -0.54084E-08 13072   0.124E-03
  57 F= -.13792082E+02 E0= -.13791810E+02  d E =-.728697E-01  mag=    -0.0000
       N       E                     dE             d eps       ncg     rms          rms(c)
DAV:   1    -0.116272356070E+02    0.27705E+00   -0.41740E+02 20272   0.101E+02    0.174E+00
DAV:   2    -0.119764845098E+02   -0.34925E+00   -0.35814E+00 22512   0.134E+01    0.113E+00
DAV:   3    -0.119606394521E+02    0.15845E-01   -0.11207E-01 22672   0.253E+00    0.712E-01
DAV:   4    -0.119543259622E+02    0.63135E-02   -0.60338E-02 23736   0.237E+00    0.554E-01
DAV:   5    -0.119487617465E+02    0.55642E-02   -0.65017E-02 23464   0.214E+00    0.149E-01
DAV:   6    -0.119483954104E+02    0.36634E-03   -0.76036E-03 22936   0.878E-01    0.115E-01
DAV:   7    -0.119484264963E+02   -0.31086E-04   -0.78587E-04 23112   0.230E-01    0.824E-02
DAV:   8    -0.119483699889E+02    0.56507E-04   -0.34735E-04 22192   0.122E-01    0.225E-02
DAV:   9    -0.119483675896E+02    0.23993E-05   -0.56875E-05 23712   0.733E-02    0.863E-03
DAV:  10    -0.119483699451E+02   -0.23555E-05   -0.71599E-06 22216   0.219E-02    0.485E-03
DAV:  11    -0.119483706711E+02   -0.72602E-06   -0.14089E-06 13584   0.111E-02
  58 F= -.13873441E+02 E0= -.13871036E+02  d E =-.154229E+00  mag=     0.0000
       N       E                     dE             d eps       ncg     rms          rms(c)
DAV:   1    -0.988365134142E+01    0.20647E+01   -0.18488E+03 20272   0.227E+02    0.108E+01
DAV:   2    -0.118694120452E+02   -0.19858E+01   -0.20282E+01 22224   0.308E+01    0.393E+00
DAV:   3    -0.118029636382E+02    0.66448E-01   -0.76513E-01 22896   0.650E+00    0.191E+00
DAV:   4    -0.118112954792E+02   -0.83318E-02   -0.62399E-01 23536   0.720E+00    0.179E+00
DAV:   5    -0.117649567162E+02    0.46339E-01   -0.30865E-01 23632   0.464E+00    0.819E-01
DAV:   6    -0.117634174194E+02    0.15393E-02   -0.39968E-02 22216   0.162E+00    0.244E-01
DAV:   7    -0.117629228703E+02    0.49455E-03   -0.47281E-03 21976   0.656E-01    0.217E-01
DAV:   8    -0.117627889181E+02    0.13395E-03   -0.11388E-03 23256   0.211E-01    0.606E-02
DAV:   9    -0.117627560391E+02    0.32879E-04   -0.26266E-04 23104   0.129E-01    0.265E-02
DAV:  10    -0.117627554132E+02    0.62590E-06   -0.15845E-05 22536   0.293E-02    0.125E-02
DAV:  11    -0.117627570015E+02   -0.15883E-05   -0.57989E-06 17232   0.200E-02    0.399E-03
DAV:  12    -0.117627602874E+02   -0.32859E-05   -0.12597E-06 15792   0.778E-03    0.146E-03
DAV:  13    -0.117627655731E+02   -0.52857E-05   -0.69848E-07 15784   0.416E-03    0.119E-03
DAV:  14    -0.117627709793E+02   -0.54062E-05   -0.56158E-07 15744   0.335E-03    0.117E-03
DAV:  15    -0.117627743323E+02   -0.33529E-05   -0.13097E-07 13248   0.153E-03    0.680E-04
DAV:  16    -0.117627784018E+02   -0.40696E-05   -0.11658E-07 13776   0.158E-03    0.315E-04
DAV:  17    -0.117627815791E+02   -0.31773E-05   -0.43170E-08 12608   0.833E-04    0.223E-04
DAV:  18    -0.117627828815E+02   -0.13024E-05   -0.22341E-08 12880   0.524E-04    0.171E-04
DAV:  19    -0.117627834114E+02   -0.52987E-06   -0.10072E-08 12776   0.351E-04
  59 F= -.13754264E+02 E0= -.13752893E+02  d E =-.350525E-01  mag=     0.0000
       N       E                     dE             d eps       ncg     rms          rms(c)
DAV:   1    -0.109808412172E+02    0.78194E+00   -0.12352E+03 20272   0.184E+02    0.407E+00
DAV:   2    -0.120153707655E+02   -0.10345E+01   -0.10556E+01 21528   0.229E+01    0.370E+00
DAV:   3    -0.119890110699E+02    0.26360E-01   -0.22631E-01 23416   0.366E+00    0.265E+00
DAV:   4    -0.119930792613E+02   -0.40682E-02   -0.32172E-01 23968   0.502E+00    0.186E+00
DAV:   5    -0.119585232362E+02    0.34556E-01   -0.42945E-01 24312   0.549E+00    0.657E-01
DAV:   6    -0.119580060314E+02    0.51720E-03   -0.28546E-02 22056   0.140E+00    0.323E-01
DAV:   7    -0.119576439940E+02    0.36204E-03   -0.33458E-03 23340   0.506E-01    0.204E-01
DAV:   8    -0.119573668930E+02    0.27710E-03   -0.21230E-03 22664   0.436E-01    0.168E-01
DAV:   9    -0.119572833272E+02    0.83566E-04   -0.71404E-04 23364   0.254E-01    0.291E-02
DAV:  10    -0.119572857561E+02   -0.24288E-05   -0.74454E-05 23232   0.665E-02    0.175E-02
DAV:  11    -0.119572900420E+02   -0.42860E-05   -0.64868E-06 21720   0.226E-02    0.860E-03
DAV:  12    -0.119572942550E+02   -0.42130E-05   -0.20084E-06 16284   0.125E-02    0.376E-03
DAV:  13    -0.119572982653E+02   -0.40102E-05   -0.55818E-07 15048   0.447E-03    0.110E-03
DAV:  14    -0.119573008804E+02   -0.26152E-05   -0.28630E-07 13736   0.286E-03    0.950E-04
DAV:  15    -0.119573045764E+02   -0.36960E-05   -0.80886E-07 15560   0.410E-03    0.106E-03
DAV:  16    -0.119573054291E+02   -0.85272E-06   -0.12292E-07 12992   0.247E-03
  60 F= -.76149413E+01 E0= -.76124221E+01  d E =0.610427E+01  mag=     0.0000
       N       E                     dE             d eps       ncg     rms          rms(c)
DAV:   1    -0.117020444965E+02    0.25526E+00   -0.28184E+02 20272   0.829E+01    0.183E+00
DAV:   2    -0.119524363150E+02   -0.25039E+00   -0.25511E+00 22128   0.112E+01    0.962E-01
DAV:   3    -0.119389906609E+02    0.13446E-01   -0.82183E-02 22624   0.197E+00    0.602E-01
DAV:   4    -0.119393507596E+02   -0.36010E-03   -0.82382E-02 23768   0.246E+00    0.551E-01
DAV:   5    -0.119336604432E+02    0.56903E-02   -0.80617E-02 24168   0.229E+00    0.179E-01
DAV:   6    -0.119328434202E+02    0.81702E-03   -0.67359E-03 23464   0.775E-01    0.108E-01
DAV:   7    -0.119327646537E+02    0.78767E-04   -0.69006E-04 23168   0.243E-01    0.641E-02
DAV:   8    -0.119326885867E+02    0.76067E-04   -0.36418E-04 22416   0.972E-02    0.223E-02
DAV:   9    -0.119326853896E+02    0.31971E-05   -0.45397E-05 23632   0.593E-02    0.649E-03
DAV:  10    -0.119326856075E+02   -0.21796E-06   -0.45302E-06 21608   0.140E-02
  61 F= -.76975435E+01 E0= -.76951480E+01  d E =0.602167E+01  mag=     0.0000
       N       E                     dE             d eps       ncg     rms          rms(c)
DAV:   1    -0.118954764474E+02    0.37209E-01   -0.75254E+01 20272   0.422E+01    0.766E-01
DAV:   2    -0.119630622226E+02   -0.67586E-01   -0.68703E-01 21472   0.578E+00    0.567E-01
DAV:   3    -0.119594656391E+02    0.35966E-02   -0.19223E-02 22296   0.928E-01    0.425E-01
[...]
DAV:   1    -0.120826106980E+02    0.26306E-01   -0.46743E+01 20272   0.334E+01    0.394E-01
DAV:   2    -0.121243033137E+02   -0.41693E-01   -0.41723E-01 22384   0.450E+00    0.342E-01
DAV:   3    -0.121228282738E+02    0.14750E-02   -0.10009E-02 22872   0.709E-01    0.248E-01
DAV:   4    -0.121219546153E+02    0.87366E-03   -0.72371E-03 23664   0.784E-01    0.240E-01
DAV:   5    -0.121206595912E+02    0.12950E-02   -0.93636E-03 22824   0.786E-01    0.462E-02
DAV:   6    -0.121207352152E+02   -0.75624E-04   -0.92683E-04 21920   0.210E-01    0.471E-02
DAV:   7    -0.121207322425E+02    0.29726E-05   -0.65677E-05 24400   0.629E-02    0.419E-02
DAV:   8    -0.121207066976E+02    0.25545E-04   -0.15162E-04 21496   0.618E-02    0.644E-03
DAV:   9    -0.121207061037E+02    0.59391E-06   -0.46282E-06 19504   0.176E-02
  93 F= -.14132610E+02 E0= -.14131406E+02  d E =-.109906E-01  mag=     0.0000
       N       E                     dE             d eps       ncg     rms          rms(c)
DAV:   1    -0.119644685494E+02    0.15624E+00   -0.19033E+02 20272   0.682E+01    0.103E+00
DAV:   2    -0.121286495391E+02   -0.16418E+00   -0.16523E+00 22400   0.897E+00    0.716E-01
DAV:   3    -0.121219493328E+02    0.67002E-02   -0.49760E-02 22320   0.166E+00    0.462E-01
DAV:   4    -0.121197292251E+02    0.22201E-02   -0.44065E-02 22776   0.197E+00    0.499E-01
DAV:   5    -0.121149420142E+02    0.47872E-02   -0.42572E-02 21848   0.163E+00    0.944E-02
DAV:   6    -0.121150687347E+02   -0.12672E-03   -0.25075E-03 21392   0.404E-01    0.791E-02
DAV:   7    -0.121150505481E+02    0.18187E-04   -0.19181E-04 23368   0.115E-01    0.701E-02
DAV:   8    -0.121149931287E+02    0.57419E-04   -0.32017E-04 22648   0.105E-01    0.866E-03
DAV:   9    -0.121149916558E+02    0.14729E-05   -0.20000E-05 23904   0.363E-02    0.379E-03
DAV:  10    -0.121149916853E+02   -0.29505E-07   -0.20937E-06 13920   0.880E-03
  94 F= -.14122410E+02 E0= -.14121065E+02  d E =-.790828E-03  mag=     0.0000
       N       E                     dE             d eps       ncg     rms          rms(c)
DAV:   1    -0.120291580305E+02    0.85834E-01   -0.11920E+02 20272   0.537E+01    0.672E-01
DAV:   2    -0.121321069536E+02   -0.10295E+00   -0.10333E+00 21584   0.709E+00    0.591E-01
DAV:   3    -0.121285694478E+02    0.35375E-02   -0.24705E-02 23272   0.112E+00    0.425E-01
DAV:   4    -0.121268206335E+02    0.17488E-02   -0.24512E-02 23680   0.142E+00    0.427E-01
DAV:   5    -0.121232325500E+02    0.35881E-02   -0.27616E-02 22880   0.138E+00    0.861E-02
DAV:   6    -0.121234979176E+02   -0.26537E-03   -0.24349E-03 21456   0.305E-01    0.862E-02
DAV:   7    -0.121234700624E+02    0.27855E-04   -0.15498E-04 24792   0.100E-01    0.741E-02
DAV:   8    -0.121233702926E+02    0.99770E-04   -0.54842E-04 21968   0.115E-01    0.117E-02
DAV:   9    -0.121233675303E+02    0.27622E-05   -0.14504E-05 23704   0.302E-02    0.568E-03
DAV:  10    -0.121233670945E+02    0.43584E-06   -0.14621E-06 13568   0.731E-03
  95 F= -.14133876E+02 E0= -.14132677E+02  d E =-.122566E-01  mag=     0.0000
       N       E                     dE             d eps       ncg     rms          rms(c)
DAV:   1    -0.121206587050E+02    0.27088E-02   -0.11144E+01 20272   0.162E+01    0.167E-01
DAV:   2    -0.121304203327E+02   -0.97616E-02   -0.97544E-02 21520   0.216E+00    0.158E-01
DAV:   3    -0.121301167605E+02    0.30357E-03   -0.19392E-03 22768   0.295E-01    0.124E-01
DAV:   4    -0.121297079402E+02    0.40882E-03   -0.12530E-03 23040   0.272E-01    0.733E-02
DAV:   5    -0.121295781334E+02    0.12981E-03   -0.11543E-03 23064   0.299E-01    0.305E-02
DAV:   6    -0.121295920893E+02   -0.13956E-04   -0.27882E-04 22168   0.107E-01    0.259E-02
DAV:   7    -0.121295866732E+02    0.54161E-05   -0.16146E-05 23712   0.277E-02    0.198E-02
DAV:   8    -0.121295788343E+02    0.78389E-05   -0.41298E-05 22136   0.341E-02    0.326E-03
DAV:   9    -0.121295788423E+02   -0.79726E-08   -0.71767E-07 12160   0.724E-03
  96 F= -.14139230E+02 E0= -.14138038E+02  d E =-.535344E-02  mag=    -0.0000
       N       E                     dE             d eps       ncg     rms          rms(c)
DAV:   1    -0.121106180844E+02    0.18961E-01   -0.30463E+01 20272   0.269E+01    0.271E-01
DAV:   2    -0.121371371888E+02   -0.26519E-01   -0.26487E-01 21432   0.356E+00    0.258E-01
DAV:   3    -0.121363288960E+02    0.80829E-03   -0.52454E-03 22872   0.484E-01    0.203E-01
DAV:   4    -0.121352460369E+02    0.10829E-02   -0.33101E-03 23032   0.454E-01    0.125E-01
DAV:   5    -0.121348556008E+02    0.39044E-03   -0.31624E-03 22976   0.490E-01    0.490E-02
DAV:   6    -0.121348914020E+02   -0.35801E-04   -0.69896E-04 22080   0.166E-01    0.418E-02
DAV:   7    -0.121348786084E+02    0.12794E-04   -0.41104E-05 23688   0.449E-02    0.323E-02
DAV:   8    -0.121348625706E+02    0.16038E-04   -0.12266E-04 22080   0.576E-02    0.873E-03
DAV:   9    -0.121348611412E+02    0.14295E-05   -0.51000E-06 21696   0.138E-02    0.261E-03
DAV:  10    -0.121348611275E+02    0.13647E-07   -0.13216E-07 11888   0.249E-03
  97 F= -.14143884E+02 E0= -.14142698E+02  d E =-.100077E-01  mag=    -0.0000
       N       E                     dE             d eps       ncg     rms          rms(c)
DAV:   1    -0.121298641989E+02    0.49969E-02   -0.69081E+00 20272   0.128E+01    0.127E-01
DAV:   2    -0.121359267018E+02   -0.60625E-02   -0.60520E-02 22352   0.170E+00    0.122E-01
DAV:   3    -0.121357427744E+02    0.18393E-03   -0.12037E-03 23128   0.233E-01    0.965E-02
DAV:   4    -0.121355176810E+02    0.22509E-03   -0.74410E-04 23032   0.228E-01    0.650E-02
DAV:   5    -0.121354022083E+02    0.11547E-03   -0.81482E-04 22840   0.246E-01    0.225E-02
DAV:   6    -0.121354132518E+02   -0.11043E-04   -0.18140E-04 21848   0.789E-02    0.207E-02
DAV:   7    -0.121354099917E+02    0.32601E-05   -0.95172E-06 23704   0.222E-02    0.166E-02
DAV:   8    -0.121354049545E+02    0.50372E-05   -0.29401E-05 21336   0.272E-02    0.304E-03
DAV:   9    -0.121354048590E+02    0.95465E-07   -0.47876E-07 11784   0.498E-03
  98 F= -.14144465E+02 E0= -.14143278E+02  d E =-.105887E-01  mag=    -0.0000
       N       E                     dE             d eps       ncg     rms          rms(c)
DAV:   1    -0.121352395244E+02    0.16543E-03   -0.18904E-01 20272   0.211E+00    0.204E-02
DAV:   2    -0.121354053303E+02   -0.16581E-03   -0.16551E-03 21616   0.282E-01    0.203E-02
DAV:   3    -0.121354002982E+02    0.50320E-05   -0.32855E-05 22864   0.386E-02    0.163E-02
DAV:   4    -0.121353939797E+02    0.63185E-05   -0.19600E-05 22960   0.368E-02    0.110E-02
DAV:   5    -0.121353905808E+02    0.33989E-05   -0.22981E-05 22760   0.414E-02    0.390E-03
DAV:   6    -0.121353909238E+02   -0.34303E-06   -0.54679E-06 21896   0.139E-02
  99 F= -.14144478E+02 E0= -.14143290E+02  d E =-.106014E-01  mag=     0.0000
       N       E                     dE             d eps       ncg     rms          rms(c)
DAV:   1    -0.121371703850E+02   -0.17798E-02   -0.13509E+00 20272   0.562E+00    0.707E-02
DAV:   2    -0.121383802951E+02   -0.12099E-02   -0.12107E-02 22416   0.767E-01    0.605E-02
DAV:   3    -0.121383374535E+02    0.42842E-04   -0.32084E-04 23040   0.130E-01    0.467E-02
DAV:   4    -0.121383156097E+02    0.21844E-04   -0.22375E-04 23688   0.143E-01    0.414E-02
DAV:   5    -0.121382770570E+02    0.38553E-04   -0.29204E-04 22728   0.136E-01    0.912E-03
DAV:   6    -0.121382790520E+02   -0.19950E-05   -0.22968E-05 21808   0.375E-02    0.827E-03
DAV:   7    -0.121382790001E+02    0.51846E-07   -0.16204E-06 14544   0.108E-02
 100 F= -.14145683E+02 E0= -.14144507E+02  d E =-.120482E-02  mag=    -0.0000
       N       E                     dE             d eps       ncg     rms          rms(c)
DAV:   1    -0.121356342297E+02    0.26448E-02   -0.12178E+01 20272   0.169E+01    0.201E-01
DAV:   2    -0.121464623496E+02   -0.10828E-01   -0.10819E-01 21448   0.230E+00    0.185E-01
DAV:   3    -0.121461043146E+02    0.35803E-03   -0.27273E-03 23272   0.376E-01    0.144E-01
DAV:   4    -0.121459088486E+02    0.19547E-03   -0.20107E-03 23680   0.426E-01    0.130E-01
DAV:   5    -0.121455128150E+02    0.39603E-03   -0.26915E-03 22744   0.414E-01    0.281E-02
DAV:   6    -0.121455368755E+02   -0.24061E-04   -0.24953E-04 21408   0.111E-01    0.279E-02
DAV:   7    -0.121455372946E+02   -0.41906E-06   -0.17928E-05 24560   0.333E-02    0.256E-02
DAV:   8    -0.121455252726E+02    0.12022E-04   -0.73237E-05 22048   0.416E-02    0.466E-03
DAV:   9    -0.121455246688E+02    0.60377E-06   -0.21367E-06 13808   0.119E-02
 101 F= -.14148020E+02 E0= -.14146892E+02  d E =-.354256E-02  mag=    -0.0000
       N       E                     dE             d eps       ncg     rms          rms(c)
DAV:   1    -0.121145787828E+02    0.30946E-01   -0.49006E+01 20272   0.340E+01    0.381E-01
DAV:   2    -0.121575424909E+02   -0.42964E-01   -0.42966E-01 21464   0.459E+00    0.374E-01
DAV:   3    -0.121562624194E+02    0.12801E-02   -0.11052E-02 22704   0.765E-01    0.292E-01
DAV:   4    -0.121555942066E+02    0.66821E-03   -0.76435E-03 23904   0.823E-01    0.275E-01
DAV:   5    -0.121538098756E+02    0.17843E-02   -0.10214E-02 22768   0.773E-01    0.636E-02
DAV:   6    -0.121539040727E+02   -0.94197E-04   -0.11516E-03 21360   0.214E-01    0.613E-02
DAV:   7    -0.121539071199E+02   -0.30472E-05   -0.71247E-05 24888   0.656E-02    0.557E-02
DAV:   8    -0.121538604711E+02    0.46649E-04   -0.31116E-04 21904   0.859E-02    0.113E-02
DAV:   9    -0.121538570485E+02    0.34225E-05   -0.13571E-05 23352   0.249E-02    0.376E-03
DAV:  10    -0.121538569976E+02    0.50946E-07   -0.75072E-07 13544   0.675E-03
 102 F= -.14147181E+02 E0= -.14146173E+02  d E =-.270311E-02  mag=     0.0000
       N       E                     dE             d eps       ncg     rms          rms(c)
DAV:   1    -0.121348484621E+02    0.19009E-01   -0.18141E+01 20272   0.207E+01    0.262E-01
DAV:   2    -0.121511200364E+02   -0.16272E-01   -0.16274E-01 21608   0.281E+00    0.210E-01
DAV:   3    -0.121505177848E+02    0.60225E-03   -0.43662E-03 22808   0.476E-01    0.161E-01
DAV:   4    -0.121502341236E+02    0.28366E-03   -0.29061E-03 23672   0.519E-01    0.144E-01
DAV:   5    -0.121497474553E+02    0.48667E-03   -0.37211E-03 22416   0.467E-01    0.312E-02
DAV:   6    -0.121497648094E+02   -0.17354E-04   -0.26765E-04 22064   0.135E-01    0.256E-02
DAV:   7    -0.121497651431E+02   -0.33366E-06   -0.19216E-05 23456   0.352E-02    0.229E-02
DAV:   8    -0.121497566541E+02    0.84890E-05   -0.51148E-05 21560   0.369E-02    0.358E-03
DAV:   9    -0.121497564654E+02    0.18867E-06   -0.18461E-06 14120   0.125E-02
 103 F= -.14148571E+02 E0= -.14147492E+02  d E =-.409309E-02  mag=     0.0000
       N       E                     dE             d eps       ncg     rms          rms(c)
DAV:   1    -0.121488473679E+02    0.90929E-03   -0.25044E+00 20272   0.756E+00    0.121E-01
DAV:   2    -0.121511757448E+02   -0.23284E-02   -0.23650E-02 22576   0.107E+00    0.111E-01
DAV:   3    -0.121510855687E+02    0.90176E-04   -0.10630E-03 22936   0.275E-01    0.658E-02
DAV:   4    -0.121510715766E+02    0.13992E-04   -0.11335E-03 24096   0.323E-01    0.855E-02
DAV:   5    -0.121509633107E+02    0.10827E-03   -0.88941E-04 22776   0.257E-01    0.125E-02
DAV:   6    -0.121509700393E+02   -0.67286E-05   -0.59326E-05 21672   0.526E-02    0.135E-02
DAV:   7    -0.121509688846E+02    0.11547E-05   -0.38598E-06 15384   0.164E-02    0.113E-02
DAV:   8    -0.121509660543E+02    0.28303E-05   -0.11708E-05 21992   0.162E-02    0.197E-03
DAV:   9    -0.121509660305E+02    0.23827E-07   -0.62730E-07 13640   0.739E-03
 104 F= -.14149554E+02 E0= -.14148481E+02  d E =-.983611E-03  mag=     0.0000
       N       E                     dE             d eps       ncg     rms          rms(c)
DAV:   1    -0.121505731104E+02    0.39294E-03   -0.82050E-01 20272   0.433E+00    0.686E-02
DAV:   2    -0.121513362303E+02   -0.76312E-03   -0.77566E-03 22520   0.614E-01    0.630E-02
DAV:   3    -0.121513066227E+02    0.29608E-04   -0.34380E-04 22960   0.157E-01    0.376E-02
DAV:   4    -0.121513013340E+02    0.52888E-05   -0.35638E-04 23976   0.182E-01    0.485E-02
DAV:   5    -0.121512662277E+02    0.35106E-04   -0.28591E-04 22672   0.146E-01    0.716E-03
DAV:   6    -0.121512685464E+02   -0.23187E-05   -0.19719E-05 21472   0.303E-02    0.784E-03
DAV:   7    -0.121512681828E+02    0.36358E-06   -0.12497E-06 13760   0.940E-03
 105 F= -.14149740E+02 E0= -.14148669E+02  d E =-.116955E-02  mag=     0.0000
       N       E                     dE             d eps       ncg     rms          rms(c)
DAV:   1    -0.121512581110E+02    0.10435E-04   -0.46781E-02 20288   0.103E+00    0.166E-02
DAV:   2    -0.121513018430E+02   -0.43732E-04   -0.44229E-04 21480   0.146E-01    0.136E-02
DAV:   3    -0.121513000494E+02    0.17936E-05   -0.14940E-05 22880   0.295E-02    0.850E-03
DAV:   4    -0.121512999328E+02    0.11660E-06   -0.19004E-05 15512   0.425E-02    0.112E-02
DAV:   5    -0.121512981087E+02    0.18241E-05   -0.16350E-05 22424   0.349E-02    0.167E-03
DAV:   6    -0.121512982107E+02   -0.10205E-06   -0.80966E-07 12688   0.628E-03
 106 F= -.14149744E+02 E0= -.14148673E+02  d E =-.117315E-02  mag=     0.0000
       N       E                     dE             d eps       ncg     rms          rms(c)
DAV:   1    -0.121510868458E+02    0.21126E-03   -0.43089E-01 20272   0.313E+00    0.390E-02
DAV:   2    -0.121514801245E+02   -0.39328E-03   -0.39320E-03 21856   0.430E-01    0.335E-02
DAV:   3    -0.121514665816E+02    0.13543E-04   -0.98800E-05 22568   0.696E-02    0.252E-02
DAV:   4    -0.121514592758E+02    0.73057E-05   -0.69487E-05 23624   0.787E-02    0.234E-02
DAV:   5    -0.121514483545E+02    0.10921E-04   -0.93685E-05 22768   0.827E-02    0.514E-03
DAV:   6    -0.121514491730E+02   -0.81843E-06   -0.10744E-05 21504   0.246E-02    0.488E-03
DAV:   7    -0.121514491624E+02    0.10555E-07   -0.63128E-07 12280   0.661E-03
 107 F= -.14150111E+02 E0= -.14149034E+02  d E =-.366547E-03  mag=     0.0000
       N       E                     dE             d eps       ncg     rms          rms(c)
DAV:   1    -0.121482495533E+02    0.31996E-02   -0.38800E+00 20272   0.940E+00    0.120E-01
DAV:   2    -0.121517932604E+02   -0.35437E-02   -0.35459E-02 22448   0.129E+00    0.102E-01
DAV:   3    -0.121516676348E+02    0.12563E-03   -0.93448E-04 22480   0.219E-01    0.759E-02
DAV:   4    -0.121516028595E+02    0.64775E-04   -0.64211E-04 23688   0.241E-01    0.717E-02
DAV:   5    -0.121514960040E+02    0.10686E-03   -0.88382E-04 22680   0.247E-01    0.158E-02
DAV:   6    -0.121515018097E+02   -0.58057E-05   -0.93622E-05 21624   0.762E-02    0.144E-02
DAV:   7    -0.121515015300E+02    0.27977E-06   -0.66673E-06 20792   0.201E-02
 108 F= -.14150861E+02 E0= -.14149767E+02  d E =-.111664E-02  mag=    -0.0000
       N       E                     dE             d eps       ncg     rms          rms(c)
DAV:   1    -0.121365453932E+02    0.14956E-01   -0.15556E+01 20272   0.189E+01    0.256E-01
DAV:   2    -0.121507864895E+02   -0.14241E-01   -0.14275E-01 22400   0.260E+00    0.207E-01
DAV:   3    -0.121502567216E+02    0.52977E-03   -0.40352E-03 22288   0.465E-01    0.149E-01
DAV:   4    -0.121500140231E+02    0.24270E-03   -0.28436E-03 23728   0.509E-01    0.144E-01
DAV:   5    -0.121496011625E+02    0.41286E-03   -0.36290E-03 22696   0.492E-01    0.321E-02
DAV:   6    -0.121496175147E+02   -0.16352E-04   -0.34006E-04 21752   0.154E-01    0.267E-02
DAV:   7    -0.121496154844E+02    0.20302E-05   -0.25415E-05 23528   0.391E-02    0.232E-02
DAV:   8    -0.121496047965E+02    0.10688E-04   -0.43850E-05 21488   0.356E-02    0.282E-03
DAV:   9    -0.121496048804E+02   -0.83873E-07   -0.17123E-06 14576   0.108E-02
 109 F= -.14150598E+02 E0= -.14149466E+02  d E =-.853780E-03  mag=    -0.0000
       N       E                     dE             d eps       ncg     rms          rms(c)
DAV:   1    -0.121458657353E+02    0.37391E-02   -0.63893E+00 20272   0.121E+01    0.150E-01
DAV:   2    -0.121516304555E+02   -0.57647E-02   -0.57663E-02 21592   0.165E+00    0.133E-01
DAV:   3    -0.121514349553E+02    0.19550E-03   -0.14199E-03 22752   0.262E-01    0.101E-01
DAV:   4    -0.121513186643E+02    0.11629E-03   -0.11233E-03 23648   0.313E-01    0.936E-02
DAV:   5    -0.121511381996E+02    0.18046E-03   -0.14861E-03 22832   0.332E-01    0.206E-02
DAV:   6    -0.121511505692E+02   -0.12370E-04   -0.16820E-04 21360   0.929E-02    0.205E-02
DAV:   7    -0.121511495487E+02    0.10204E-05   -0.10850E-05 23728   0.253E-02    0.179E-02
DAV:   8    -0.121511421989E+02    0.73498E-05   -0.25721E-05 21192   0.246E-02    0.180E-03
DAV:   9    -0.121511422179E+02   -0.18972E-07   -0.94512E-07 12984   0.687E-03
 110 F= -.14151050E+02 E0= -.14149944E+02  d E =-.130582E-02  mag=     0.0000
       N       E                     dE             d eps       ncg     rms          rms(c)
DAV:   1    -0.121497844438E+02    0.13578E-02   -0.16976E+00 20272   0.627E+00    0.695E-02
DAV:   2    -0.121513307935E+02   -0.15463E-02   -0.15500E-02 22280   0.860E-01    0.689E-02
DAV:   3    -0.121512836624E+02    0.47131E-04   -0.43896E-04 23160   0.160E-01    0.498E-02
DAV:   4    -0.121512612742E+02    0.22388E-04   -0.28709E-04 23864   0.164E-01    0.535E-02
DAV:   5    -0.121511946052E+02    0.66669E-04   -0.33286E-04 22656   0.141E-01    0.963E-03
DAV:   6    -0.121511984820E+02   -0.38768E-05   -0.44205E-05 21744   0.366E-02    0.115E-02
DAV:   7    -0.121511985059E+02   -0.23891E-07   -0.16303E-06 13544   0.106E-02
 111 F= -.14151577E+02 E0= -.14150465E+02  d E =-.526881E-03  mag=     0.0000
       N       E                     dE             d eps       ncg     rms          rms(c)
DAV:   1    -0.121456226898E+02    0.55758E-02   -0.60072E+00 20272   0.118E+01    0.132E-01
DAV:   2    -0.121510940689E+02   -0.54714E-02   -0.54810E-02 22384   0.162E+00    0.129E-01
DAV:   3    -0.121509247591E+02    0.16931E-03   -0.15338E-03 23208   0.297E-01    0.937E-02
DAV:   4    -0.121508434217E+02    0.81337E-04   -0.10113E-03 23848   0.310E-01    0.998E-02
DAV:   5    -0.121506099547E+02    0.23347E-03   -0.11971E-03 22656   0.266E-01    0.172E-02
DAV:   6    -0.121506231942E+02   -0.13239E-04   -0.14270E-04 21704   0.675E-02    0.210E-02
DAV:   7    -0.121506235148E+02   -0.32058E-06   -0.62269E-06 20360   0.198E-02
 112 F= -.14151994E+02 E0= -.14150872E+02  d E =-.944247E-03  mag=     0.0000
       N       E                     dE             d eps       ncg     rms          rms(c)
DAV:   1    -0.121512285347E+02   -0.60534E-03   -0.16803E-01 20272   0.200E+00    0.437E-02
DAV:   2    -0.121513811517E+02   -0.15262E-03   -0.15560E-03 21464   0.278E-01    0.303E-02
DAV:   3    -0.121513732597E+02    0.78920E-05   -0.63283E-05 23008   0.629E-02    0.161E-02
DAV:   4    -0.121513761937E+02   -0.29340E-05   -0.10893E-04 23968   0.101E-01    0.215E-02
DAV:   5    -0.121513690736E+02    0.71201E-05   -0.74391E-05 23432   0.818E-02    0.262E-03
DAV:   6    -0.121513691946E+02   -0.12101E-06   -0.34563E-06 17488   0.148E-02
 113 F= -.14152001E+02 E0= -.14150887E+02  d E =-.722674E-05  mag=     0.0000
       N       E                     dE             d eps       ncg     rms          rms(c)
DAV:   1    -0.121510470883E+02    0.32199E-03   -0.29590E-02 20280   0.841E-01    0.169E-02
DAV:   2    -0.121510733013E+02   -0.26213E-04   -0.27035E-04 22592   0.119E-01    0.140E-02
DAV:   3    -0.121510720018E+02    0.12996E-05   -0.18034E-05 22648   0.392E-02    0.772E-03
DAV:   4    -0.121510717566E+02    0.24519E-06   -0.21561E-05 18168   0.444E-02    0.936E-03
DAV:   5    -0.121510707796E+02    0.97694E-06   -0.12865E-05 16888   0.331E-02    0.127E-03
DAV:   6    -0.121510708356E+02   -0.55936E-07   -0.89039E-07 11992   0.767E-03
 114 F= -.14152012E+02 E0= -.14150895E+02  d E =-.184277E-04  mag=    -0.0000
