<?xml version="1.0" encoding="ISO-8859-1"?>
<modeling>
 <generator>
  <i name="program" type="string">vasp </i>
  <i name="version" type="string">5.4.1  </i>
  <i name="subversion" type="string">05Feb16 (build Sep 09 2016 09:44:48) complex                          parallel </i>
  <i name="platform" type="string">IFC91_ompi </i>
  <i name="date" type="string">2023 02 19 </i>
  <i name="time" type="string">03:54:37 </i>
 </generator>
 <incar>
  <i type="string" name="SYSTEM"> Slab Fe 1x1 4Layers</i>
  <i type="int" name="ISTART">     0</i>
  <i type="string" name="PREC">accurate</i>
  <i type="int" name="ISPIN">     2</i>
  <i type="int" name="ICHARG">     2</i>
  <i type="int" name="NELM">   100</i>
  <i type="int" name="IBRION">     2</i>
  <i name="EDIFF">      0.00000100</i>
  <i name="EDIFFG">     -0.01000000</i>
  <i type="int" name="NSW">  5000</i>
  <i type="int" name="ISIF">     2</i>
  <i type="int" name="ISYM">     0</i>
  <i name="ENCUT">    450.00000000</i>
  <i name="POTIM">      0.25000000</i>
  <i type="string" name="LREAL"> Auto</i>
  <i type="int" name="ISMEAR">     0</i>
  <i name="SIGMA">      0.05000000</i>
  <i type="int" name="NWRITE">     2</i>
  <i type="logical" name="LWAVE"> F  </i>
  <i type="logical" name="LCHARG"> F  </i>
  <v type="int" name="KPOINT_BSE">    -1     0     0     0</v>
  <i type="int" name="NELM">   100</i>
  <i type="int" name="IDIPOL">     3</i>
 </incar>
 <kpoints>
  <generation param="Monkhorst-Pack">
   <v type="int" name="divisions">      19       19        1 </v>
   <v name="usershift">      0.00000000       0.00000000       0.00000000 </v>
   <v name="genvec1">      0.05263158       0.00000000       0.00000000 </v>
   <v name="genvec2">      0.00000000       0.05263158       0.00000000 </v>
   <v name="genvec3">      0.00000000       0.00000000       1.00000000 </v>
   <v name="shift">      0.00000000       0.00000000       0.00000000 </v>
  </generation>
  <varray name="kpointlist" >
   <v>       0.00000000       0.00000000       0.00000000 </v>
   <v>       0.05263158       0.00000000       0.00000000 </v>
   <v>       0.10526316      -0.00000000       0.00000000 </v>
   <v>       0.15789474       0.00000000       0.00000000 </v>
   <v>       0.21052632      -0.00000000       0.00000000 </v>
   <v>       0.26315789       0.00000000       0.00000000 </v>
   <v>       0.31578947       0.00000000       0.00000000 </v>
   <v>       0.36842105       0.00000000       0.00000000 </v>
   <v>       0.42105263      -0.00000000       0.00000000 </v>
   <v>       0.47368421       0.00000000       0.00000000 </v>
   <v>       0.00000000       0.05263158       0.00000000 </v>
   <v>       0.05263158       0.05263158       0.00000000 </v>
   <v>       0.10526316       0.05263158       0.00000000 </v>
   <v>       0.15789474       0.05263158       0.00000000 </v>
   <v>       0.21052632       0.05263158       0.00000000 </v>
   <v>       0.26315789       0.05263158       0.00000000 </v>
   <v>       0.31578947       0.05263158       0.00000000 </v>
   <v>       0.36842105       0.05263158       0.00000000 </v>
   <v>       0.42105263       0.05263158       0.00000000 </v>
   <v>       0.47368421       0.05263158       0.00000000 </v>
   <v>      -0.47368421       0.05263158       0.00000000 </v>
   <v>      -0.42105263       0.05263158       0.00000000 </v>
   <v>      -0.36842105       0.05263158       0.00000000 </v>
   <v>      -0.31578947       0.05263158       0.00000000 </v>
   <v>      -0.26315789       0.05263158       0.00000000 </v>
   <v>      -0.21052632       0.05263158       0.00000000 </v>
   <v>      -0.15789474       0.05263158       0.00000000 </v>
   <v>      -0.10526316       0.05263158       0.00000000 </v>
   <v>      -0.05263158       0.05263158       0.00000000 </v>
   <v>       0.00000000       0.10526316       0.00000000 </v>
   <v>       0.05263158       0.10526316       0.00000000 </v>
   <v>       0.10526316       0.10526316       0.00000000 </v>
   <v>       0.15789474       0.10526316       0.00000000 </v>
   <v>       0.21052632       0.10526316       0.00000000 </v>
   <v>       0.26315789       0.10526316       0.00000000 </v>
   <v>       0.31578947       0.10526316       0.00000000 </v>
   <v>       0.36842105       0.10526316       0.00000000 </v>
   <v>       0.42105263       0.10526316       0.00000000 </v>
   <v>       0.47368421       0.10526316       0.00000000 </v>
   <v>      -0.47368421       0.10526316       0.00000000 </v>
   <v>      -0.42105263       0.10526316       0.00000000 </v>
   <v>      -0.36842105       0.10526316       0.00000000 </v>
   <v>      -0.31578947       0.10526316       0.00000000 </v>
   <v>      -0.26315789       0.10526316       0.00000000 </v>
   <v>      -0.21052632       0.10526316       0.00000000 </v>
   <v>      -0.15789474       0.10526316       0.00000000 </v>
   <v>      -0.10526316       0.10526316       0.00000000 </v>
   <v>      -0.05263158       0.10526316       0.00000000 </v>
   <v>       0.00000000       0.15789474       0.00000000 </v>
   <v>       0.05263158       0.15789474       0.00000000 </v>
   <v>       0.10526316       0.15789474       0.00000000 </v>
   <v>       0.15789474       0.15789474       0.00000000 </v>
   <v>       0.21052632       0.15789474       0.00000000 </v>
   <v>       0.26315789       0.15789474       0.00000000 </v>
   <v>       0.31578947       0.15789474       0.00000000 </v>
   <v>       0.36842105       0.15789474       0.00000000 </v>
   <v>       0.42105263       0.15789474       0.00000000 </v>
   <v>       0.47368421       0.15789474       0.00000000 </v>
   <v>      -0.47368421       0.15789474       0.00000000 </v>
   <v>      -0.42105263       0.15789474       0.00000000 </v>
   <v>      -0.36842105       0.15789474       0.00000000 </v>
   <v>      -0.31578947       0.15789474       0.00000000 </v>
   <v>      -0.26315789       0.15789474       0.00000000 </v>
   <v>      -0.21052632       0.15789474       0.00000000 </v>
   <v>      -0.15789474       0.15789474       0.00000000 </v>
   <v>      -0.10526316       0.15789474       0.00000000 </v>
   <v>      -0.05263158       0.15789474       0.00000000 </v>
   <v>       0.00000000       0.21052632       0.00000000 </v>
   <v>       0.05263158       0.21052632       0.00000000 </v>
   <v>       0.10526316       0.21052632       0.00000000 </v>
   <v>       0.15789474       0.21052632       0.00000000 </v>
   <v>       0.21052632       0.21052632       0.00000000 </v>
   <v>       0.26315789       0.21052632       0.00000000 </v>
   <v>       0.31578947       0.21052632       0.00000000 </v>
   <v>       0.36842105       0.21052632       0.00000000 </v>
   <v>       0.42105263       0.21052632       0.00000000 </v>
   <v>       0.47368421       0.21052632       0.00000000 </v>
   <v>      -0.47368421       0.21052632       0.00000000 </v>
   <v>      -0.42105263       0.21052632       0.00000000 </v>
   <v>      -0.36842105       0.21052632       0.00000000 </v>
   <v>      -0.31578947       0.21052632       0.00000000 </v>
   <v>      -0.26315789       0.21052632       0.00000000 </v>
   <v>      -0.21052632       0.21052632       0.00000000 </v>
   <v>      -0.15789474       0.21052632       0.00000000 </v>
   <v>      -0.10526316       0.21052632       0.00000000 </v>
   <v>      -0.05263158       0.21052632       0.00000000 </v>
   <v>       0.00000000       0.26315789       0.00000000 </v>
   <v>       0.05263158       0.26315789       0.00000000 </v>
   <v>       0.10526316       0.26315789       0.00000000 </v>
   <v>       0.15789474       0.26315789       0.00000000 </v>
   <v>       0.21052632       0.26315789       0.00000000 </v>
   <v>       0.26315789       0.26315789       0.00000000 </v>
   <v>       0.31578947       0.26315789       0.00000000 </v>
   <v>       0.36842105       0.26315789       0.00000000 </v>
   <v>       0.42105263       0.26315789       0.00000000 </v>
   <v>       0.47368421       0.26315789       0.00000000 </v>
   <v>      -0.47368421       0.26315789       0.00000000 </v>
   <v>      -0.42105263       0.26315789       0.00000000 </v>
   <v>      -0.36842105       0.26315789       0.00000000 </v>
   <v>      -0.31578947       0.26315789       0.00000000 </v>
   <v>      -0.26315789       0.26315789       0.00000000 </v>
   <v>      -0.21052632       0.26315789       0.00000000 </v>
   <v>      -0.15789474       0.26315789       0.00000000 </v>
   <v>      -0.10526316       0.26315789       0.00000000 </v>
   <v>      -0.05263158       0.26315789       0.00000000 </v>
   <v>       0.00000000       0.31578947       0.00000000 </v>
   <v>       0.05263158       0.31578947       0.00000000 </v>
   <v>       0.10526316       0.31578947       0.00000000 </v>
   <v>       0.15789474       0.31578947       0.00000000 </v>
   <v>       0.21052632       0.31578947       0.00000000 </v>
   <v>       0.26315789       0.31578947       0.00000000 </v>
   <v>       0.31578947       0.31578947       0.00000000 </v>
   <v>       0.36842105       0.31578947       0.00000000 </v>
   <v>       0.42105263       0.31578947       0.00000000 </v>
   <v>       0.47368421       0.31578947       0.00000000 </v>
   <v>      -0.47368421       0.31578947       0.00000000 </v>
   <v>      -0.42105263       0.31578947       0.00000000 </v>
   <v>      -0.36842105       0.31578947       0.00000000 </v>
   <v>      -0.31578947       0.31578947       0.00000000 </v>
   <v>      -0.26315789       0.31578947       0.00000000 </v>
   <v>      -0.21052632       0.31578947       0.00000000 </v>
   <v>      -0.15789474       0.31578947       0.00000000 </v>
   <v>      -0.10526316       0.31578947       0.00000000 </v>
   <v>      -0.05263158       0.31578947       0.00000000 </v>
   <v>       0.00000000       0.36842105       0.00000000 </v>
   <v>       0.05263158       0.36842105       0.00000000 </v>
   <v>       0.10526316       0.36842105       0.00000000 </v>
   <v>       0.15789474       0.36842105       0.00000000 </v>
   <v>       0.21052632       0.36842105       0.00000000 </v>
   <v>       0.26315789       0.36842105       0.00000000 </v>
   <v>       0.31578947       0.36842105       0.00000000 </v>
   <v>       0.36842105       0.36842105       0.00000000 </v>
   <v>       0.42105263       0.36842105       0.00000000 </v>
   <v>       0.47368421       0.36842105       0.00000000 </v>
   <v>      -0.47368421       0.36842105       0.00000000 </v>
   <v>      -0.42105263       0.36842105       0.00000000 </v>
   <v>      -0.36842105       0.36842105       0.00000000 </v>
   <v>      -0.31578947       0.36842105       0.00000000 </v>
   <v>      -0.26315789       0.36842105       0.00000000 </v>
   <v>      -0.21052632       0.36842105       0.00000000 </v>
   <v>      -0.15789474       0.36842105       0.00000000 </v>
   <v>      -0.10526316       0.36842105       0.00000000 </v>
   <v>      -0.05263158       0.36842105       0.00000000 </v>
   <v>       0.00000000       0.42105263       0.00000000 </v>
   <v>       0.05263158       0.42105263       0.00000000 </v>
   <v>       0.10526316       0.42105263       0.00000000 </v>
   <v>       0.15789474       0.42105263       0.00000000 </v>
   <v>       0.21052632       0.42105263       0.00000000 </v>
   <v>       0.26315789       0.42105263       0.00000000 </v>
   <v>       0.31578947       0.42105263       0.00000000 </v>
   <v>       0.36842105       0.42105263       0.00000000 </v>
   <v>       0.42105263       0.42105263       0.00000000 </v>
   <v>       0.47368421       0.42105263       0.00000000 </v>
   <v>      -0.47368421       0.42105263       0.00000000 </v>
   <v>      -0.42105263       0.42105263       0.00000000 </v>
   <v>      -0.36842105       0.42105263       0.00000000 </v>
   <v>      -0.31578947       0.42105263       0.00000000 </v>
   <v>      -0.26315789       0.42105263       0.00000000 </v>
   <v>      -0.21052632       0.42105263       0.00000000 </v>
   <v>      -0.15789474       0.42105263       0.00000000 </v>
   <v>      -0.10526316       0.42105263       0.00000000 </v>
   <v>      -0.05263158       0.42105263       0.00000000 </v>
   <v>       0.00000000       0.47368421       0.00000000 </v>
   <v>       0.05263158       0.47368421       0.00000000 </v>
   <v>       0.10526316       0.47368421       0.00000000 </v>
   <v>       0.15789474       0.47368421       0.00000000 </v>
   <v>       0.21052632       0.47368421       0.00000000 </v>
   <v>       0.26315789       0.47368421       0.00000000 </v>
   <v>       0.31578947       0.47368421       0.00000000 </v>
   <v>       0.36842105       0.47368421       0.00000000 </v>
   <v>       0.42105263       0.47368421       0.00000000 </v>
   <v>       0.47368421       0.47368421       0.00000000 </v>
   <v>      -0.47368421       0.47368421       0.00000000 </v>
   <v>      -0.42105263       0.47368421       0.00000000 </v>
   <v>      -0.36842105       0.47368421       0.00000000 </v>
   <v>      -0.31578947       0.47368421       0.00000000 </v>
   <v>      -0.26315789       0.47368421       0.00000000 </v>
   <v>      -0.21052632       0.47368421       0.00000000 </v>
   <v>      -0.15789474       0.47368421       0.00000000 </v>
   <v>      -0.10526316       0.47368421       0.00000000 </v>
   <v>      -0.05263158       0.47368421       0.00000000 </v>
  </varray>
  <varray name="weights" >
   <v>       0.00277008 </v>
   <v>       0.00554017 </v>
   <v>       0.00554017 </v>
   <v>       0.00554017 </v>
   <v>       0.00554017 </v>
   <v>       0.00554017 </v>
   <v>       0.00554017 </v>
   <v>       0.00554017 </v>
   <v>       0.00554017 </v>
   <v>       0.00554017 </v>
   <v>       0.00554017 </v>
   <v>       0.00554017 </v>
   <v>       0.00554017 </v>
   <v>       0.00554017 </v>
   <v>       0.00554017 </v>
   <v>       0.00554017 </v>
   <v>       0.00554017 </v>
   <v>       0.00554017 </v>
   <v>       0.00554017 </v>
   <v>       0.00554017 </v>
   <v>       0.00554017 </v>
   <v>       0.00554017 </v>
   <v>       0.00554017 </v>
   <v>       0.00554017 </v>
   <v>       0.00554017 </v>
   <v>       0.00554017 </v>
   <v>       0.00554017 </v>
   <v>       0.00554017 </v>
   <v>       0.00554017 </v>
   <v>       0.00554017 </v>
   <v>       0.00554017 </v>
   <v>       0.00554017 </v>
   <v>       0.00554017 </v>
   <v>       0.00554017 </v>
   <v>       0.00554017 </v>
   <v>       0.00554017 </v>
   <v>       0.00554017 </v>
   <v>       0.00554017 </v>
   <v>       0.00554017 </v>
   <v>       0.00554017 </v>
   <v>       0.00554017 </v>
   <v>       0.00554017 </v>
   <v>       0.00554017 </v>
   <v>       0.00554017 </v>
   <v>       0.00554017 </v>
   <v>       0.00554017 </v>
   <v>       0.00554017 </v>
   <v>       0.00554017 </v>
   <v>       0.00554017 </v>
   <v>       0.00554017 </v>
   <v>       0.00554017 </v>
   <v>       0.00554017 </v>
   <v>       0.00554017 </v>
   <v>       0.00554017 </v>
   <v>       0.00554017 </v>
   <v>       0.00554017 </v>
   <v>       0.00554017 </v>
   <v>       0.00554017 </v>
   <v>       0.00554017 </v>
   <v>       0.00554017 </v>
   <v>       0.00554017 </v>
   <v>       0.00554017 </v>
   <v>       0.00554017 </v>
   <v>       0.00554017 </v>
   <v>       0.00554017 </v>
   <v>       0.00554017 </v>
   <v>       0.00554017 </v>
   <v>       0.00554017 </v>
   <v>       0.00554017 </v>
   <v>       0.00554017 </v>
   <v>       0.00554017 </v>
   <v>       0.00554017 </v>
   <v>       0.00554017 </v>
   <v>       0.00554017 </v>
   <v>       0.00554017 </v>
   <v>       0.00554017 </v>
   <v>       0.00554017 </v>
   <v>       0.00554017 </v>
   <v>       0.00554017 </v>
   <v>       0.00554017 </v>
   <v>       0.00554017 </v>
   <v>       0.00554017 </v>
   <v>       0.00554017 </v>
   <v>       0.00554017 </v>
   <v>       0.00554017 </v>
   <v>       0.00554017 </v>
   <v>       0.00554017 </v>
   <v>       0.00554017 </v>
   <v>       0.00554017 </v>
   <v>       0.00554017 </v>
   <v>       0.00554017 </v>
   <v>       0.00554017 </v>
   <v>       0.00554017 </v>
   <v>       0.00554017 </v>
   <v>       0.00554017 </v>
   <v>       0.00554017 </v>
   <v>       0.00554017 </v>
   <v>       0.00554017 </v>
   <v>       0.00554017 </v>
   <v>       0.00554017 </v>
   <v>       0.00554017 </v>
   <v>       0.00554017 </v>
   <v>       0.00554017 </v>
   <v>       0.00554017 </v>
   <v>       0.00554017 </v>
   <v>       0.00554017 </v>
   <v>       0.00554017 </v>
   <v>       0.00554017 </v>
   <v>       0.00554017 </v>
   <v>       0.00554017 </v>
   <v>       0.00554017 </v>
   <v>       0.00554017 </v>
   <v>       0.00554017 </v>
   <v>       0.00554017 </v>
   <v>       0.00554017 </v>
   <v>       0.00554017 </v>
   <v>       0.00554017 </v>
   <v>       0.00554017 </v>
   <v>       0.00554017 </v>
   <v>       0.00554017 </v>
   <v>       0.00554017 </v>
   <v>       0.00554017 </v>
   <v>       0.00554017 </v>
   <v>       0.00554017 </v>
   <v>       0.00554017 </v>
   <v>       0.00554017 </v>
   <v>       0.00554017 </v>
   <v>       0.00554017 </v>
   <v>       0.00554017 </v>
   <v>       0.00554017 </v>
   <v>       0.00554017 </v>
   <v>       0.00554017 </v>
   <v>       0.00554017 </v>
   <v>       0.00554017 </v>
   <v>       0.00554017 </v>
   <v>       0.00554017 </v>
   <v>       0.00554017 </v>
   <v>       0.00554017 </v>
   <v>       0.00554017 </v>
   <v>       0.00554017 </v>
   <v>       0.00554017 </v>
   <v>       0.00554017 </v>
   <v>       0.00554017 </v>
   <v>       0.00554017 </v>
   <v>       0.00554017 </v>
   <v>       0.00554017 </v>
   <v>       0.00554017 </v>
   <v>       0.00554017 </v>
   <v>       0.00554017 </v>
   <v>       0.00554017 </v>
   <v>       0.00554017 </v>
   <v>       0.00554017 </v>
   <v>       0.00554017 </v>
   <v>       0.00554017 </v>
   <v>       0.00554017 </v>
   <v>       0.00554017 </v>
   <v>       0.00554017 </v>
   <v>       0.00554017 </v>
   <v>       0.00554017 </v>
   <v>       0.00554017 </v>
   <v>       0.00554017 </v>
   <v>       0.00554017 </v>
   <v>       0.00554017 </v>
   <v>       0.00554017 </v>
   <v>       0.00554017 </v>
   <v>       0.00554017 </v>
   <v>       0.00554017 </v>
   <v>       0.00554017 </v>
   <v>       0.00554017 </v>
   <v>       0.00554017 </v>
   <v>       0.00554017 </v>
   <v>       0.00554017 </v>
   <v>       0.00554017 </v>
   <v>       0.00554017 </v>
   <v>       0.00554017 </v>
   <v>       0.00554017 </v>
   <v>       0.00554017 </v>
   <v>       0.00554017 </v>
   <v>       0.00554017 </v>
   <v>       0.00554017 </v>
   <v>       0.00554017 </v>
  </varray>
 </kpoints>
 <parameters>
  <separator name="general" >
   <i type="string" name="SYSTEM">Slab Fe 1x1 4Layers</i>
   <i type="logical" name="LCOMPAT"> F  </i>
  </separator>
  <separator name="electronic" >
   <i type="string" name="PREC">accura</i>
   <i name="ENMAX">    450.00000000</i>
   <i name="ENAUG">    356.67000000</i>
   <i name="EDIFF">      0.00000100</i>
   <i type="int" name="IALGO">    38</i>
   <i type="int" name="IWAVPR">    11</i>
   <i type="int" name="NBANDS">    28</i>
   <i name="NELECT">     44.00000000</i>
   <i type="int" name="TURBO">     0</i>
   <i type="int" name="IRESTART">     0</i>
   <i type="int" name="NREBOOT">     0</i>
   <i type="int" name="NMIN">     0</i>
   <i name="EREF">      0.00000000</i>
   <separator name="electronic smearing" >
    <i type="int" name="ISMEAR">     0</i>
    <i name="SIGMA">      0.05000000</i>
    <i name="KSPACING">      0.50000000</i>
    <i type="logical" name="KGAMMA"> T  </i>
   </separator>
   <separator name="electronic projectors" >
    <i type="logical" name="LREAL"> T  </i>
    <v name="ROPT">     -0.00025000</v>
    <i type="int" name="LMAXPAW">  -100</i>
    <i type="int" name="LMAXMIX">     2</i>
    <i type="logical" name="NLSPLINE"> F  </i>
   </separator>
   <separator name="electronic startup" >
    <i type="int" name="ISTART">     0</i>
    <i type="int" name="ICHARG">     2</i>
    <i type="int" name="INIWAV">     1</i>
   </separator>
   <separator name="electronic spin" >
    <i type="int" name="ISPIN">     2</i>
    <i type="logical" name="LNONCOLLINEAR"> F  </i>
    <v name="MAGMOM">      1.00000000      1.00000000      1.00000000      1.00000000</v>
    <i name="NUPDOWN">     -1.00000000</i>
    <i type="logical" name="LSORBIT"> F  </i>
    <v name="SAXIS">      0.00000000      0.00000000      1.00000000</v>
    <i type="logical" name="LSPIRAL"> F  </i>
    <v name="QSPIRAL">      0.00000000      0.00000000      0.00000000</v>
    <i type="logical" name="LZEROZ"> F  </i>
   </separator>
   <separator name="electronic exchange-correlation" >
    <i type="logical" name="LASPH"> F  </i>
    <i type="logical" name="LMETAGGA"> F  </i>
   </separator>
   <separator name="electronic convergence" >
    <i type="int" name="NELM">   100</i>
    <i type="int" name="NELMDL">    -5</i>
    <i type="int" name="NELMIN">     2</i>
    <i name="ENINI">    450.00000000</i>
    <separator name="electronic convergence detail" >
     <i type="logical" name="LDIAG"> T  </i>
     <i type="logical" name="LSUBROT"> F  </i>
     <i name="WEIMIN">      0.00100000</i>
     <i name="EBREAK">      0.00000001</i>
     <i name="DEPER">      0.30000000</i>
     <i type="int" name="NRMM">     4</i>
     <i name="TIME">      0.40000000</i>
    </separator>
   </separator>
   <separator name="electronic mixer" >
    <i name="AMIX">      0.40000000</i>
    <i name="BMIX">      1.00000000</i>
    <i name="AMIN">      0.10000000</i>
    <i name="AMIX_MAG">      1.60000000</i>
    <i name="BMIX_MAG">      1.00000000</i>
    <separator name="electronic mixer details" >
     <i type="int" name="IMIX">     4</i>
     <i type="logical" name="MIXFIRST"> F  </i>
     <i type="int" name="MAXMIX">   -45</i>
     <i name="WC">    100.00000000</i>
     <i type="int" name="INIMIX">     1</i>
     <i type="int" name="MIXPRE">     1</i>
     <i type="int" name="MREMOVE">     5</i>
    </separator>
   </separator>
   <separator name="electronic dipolcorrection" >
    <i type="logical" name="LDIPOL"> F  </i>
    <i type="logical" name="LMONO"> F  </i>
    <i type="int" name="IDIPOL">     3</i>
    <i name="EPSILON">      1.00000000</i>
    <v name="DIPOL">   -100.00000000   -100.00000000   -100.00000000</v>
    <i name="EFIELD">      0.00000000</i>
   </separator>
  </separator>
  <separator name="grids" >
   <i type="int" name="NGX">    20</i>
   <i type="int" name="NGY">    20</i>
   <i type="int" name="NGZ">   160</i>
   <i type="int" name="NGXF">    40</i>
   <i type="int" name="NGYF">    40</i>
   <i type="int" name="NGZF">   320</i>
   <i type="logical" name="ADDGRID"> F  </i>
  </separator>
  <separator name="ionic" >
   <i type="int" name="NSW">  5000</i>
   <i type="int" name="IBRION">     2</i>
   <i type="int" name="ISIF">     2</i>
   <i name="PSTRESS">      0.00000000</i>
   <i name="EDIFFG">     -0.01000000</i>
   <i type="int" name="NFREE">     1</i>
   <i name="POTIM">      0.25000000</i>
   <i name="SMASS">     -3.00000000</i>
   <i name="SCALEE">      1.00000000</i>
  </separator>
  <separator name="ionic md" >
   <i name="TEBEG">      0.00010000</i>
   <i name="TEEND">      0.00010000</i>
   <i type="int" name="NBLOCK">     1</i>
   <i type="int" name="KBLOCK">  5000</i>
   <i type="int" name="NPACO">   256</i>
   <i name="APACO">     16.00000000</i>
  </separator>
  <separator name="symmetry" >
   <i type="int" name="ISYM">     0</i>
   <i name="SYMPREC">      0.00001000</i>
  </separator>
  <separator name="dos" >
   <i type="logical" name="LORBIT"> F  </i>
   <v name="RWIGS">     -1.00000000</v>
   <i type="int" name="NEDOS">   301</i>
   <i name="EMIN">     10.00000000</i>
   <i name="EMAX">    -10.00000000</i>
   <i name="EFERMI">      0.00000000</i>
  </separator>
  <separator name="writing" >
   <i type="int" name="NWRITE">     2</i>
   <i type="logical" name="LWAVE"> F  </i>
   <i type="logical" name="LCHARG"> F  </i>
   <i type="logical" name="LPARD"> F  </i>
   <i type="logical" name="LVTOT"> F  </i>
   <i type="logical" name="LVHAR"> F  </i>
   <i type="logical" name="LELF"> F  </i>
   <i type="logical" name="LOPTICS"> F  </i>
   <v name="STM">      0.00000000      0.00000000      0.00000000      0.00000000      0.00000000      0.00000000      0.00000000</v>
  </separator>
  <separator name="performance" >
   <i type="int" name="NPAR">     1</i>
   <i type="int" name="NSIM">     4</i>
   <i type="int" name="NBLK">    -1</i>
   <i type="logical" name="LPLANE"> T  </i>
   <i type="logical" name="LSCALAPACK"> F  </i>
   <i type="logical" name="LSCAAWARE"> F  </i>
   <i type="logical" name="LSCALU"> F  </i>
   <i type="logical" name="LASYNC"> F  </i>
   <i type="logical" name="LORBITALREAL"> F  </i>
  </separator>
  <separator name="miscellaneous" >
   <i type="int" name="IDIOT">     3</i>
   <i type="logical" name="LMUSIC"> F  </i>
   <v name="POMASS">    196.96600000</v>
   <v name="DARWINR">      0.00000000</v>
   <v name="DARWINV">      1.00000000</v>
   <i type="logical" name="LCORR"> T  </i>
  </separator>
  <i type="logical" name="GGA_COMPAT"> T  </i>
  <i type="logical" name="LBERRY"> F  </i>
  <i type="int" name="ICORELEVEL">     0</i>
  <i type="logical" name="LDAU"> F  </i>
  <i type="int" name="I_CONSTRAINED_M">     0</i>
  <separator name="electronic exchange-correlation" >
   <i type="string" name="GGA">--</i>
   <i type="int" name="VOSKOWN">     0</i>
   <i type="logical" name="LHFCALC"> F  </i>
   <i type="string" name="PRECFOCK"></i>
   <i type="logical" name="LSYMGRAD"> F  </i>
   <i type="logical" name="LHFONE"> F  </i>
   <i type="logical" name="LRHFCALC"> F  </i>
   <i type="logical" name="LTHOMAS"> F  </i>
   <i type="logical" name="LMODELHF"> F  </i>
   <i name="ENCUT4O">     -1.00000000</i>
   <i type="int" name="EXXOEP">     0</i>
   <i type="int" name="FOURORBIT">     0</i>
   <i name="AEXX">      0.00000000</i>
   <i name="HFALPHA">      0.00000000</i>
   <i name="MCALPHA">      0.00000000</i>
   <i name="ALDAX">      1.00000000</i>
   <i name="AGGAX">      1.00000000</i>
   <i name="ALDAC">      1.00000000</i>
   <i name="AGGAC">      1.00000000</i>
   <i type="int" name="NKREDX">     1</i>
   <i type="int" name="NKREDY">     1</i>
   <i type="int" name="NKREDZ">     1</i>
   <i type="logical" name="SHIFTRED"> F  </i>
   <i type="logical" name="ODDONLY"> F  </i>
   <i type="logical" name="EVENONLY"> F  </i>
   <i type="int" name="LMAXFOCK">     0</i>
   <i type="int" name="NMAXFOCKAE">     0</i>
   <i type="logical" name="LFOCKAEDFT"> F  </i>
   <i name="HFSCREEN">      0.00000000</i>
   <i name="HFSCREENC">      0.00000000</i>
   <i type="int" name="NBANDSGWLOW">     0</i>
  </separator>
  <separator name="vdW DFT" >
   <i type="logical" name="LUSE_VDW"> F  </i>
   <i name="Zab_VDW">     -0.84910000</i>
   <i name="PARAM1">      0.12340000</i>
   <i name="PARAM2">      1.00000000</i>
   <i name="PARAM3">      0.00000000</i>
  </separator>
  <separator name="model GW" >
   <i type="int" name="MODEL_GW">     0</i>
   <i name="MODEL_EPS0">     24.10665063</i>
   <i name="MODEL_ALPHA">      1.00000000</i>
  </separator>
  <separator name="linear response parameters" >
   <i type="logical" name="LEPSILON"> F  </i>
   <i type="logical" name="LRPA"> F  </i>
   <i type="logical" name="LNABLA"> F  </i>
   <i type="logical" name="LVEL"> F  </i>
   <i type="int" name="KINTER">     0</i>
   <i name="CSHIFT">      0.10000000</i>
   <i name="OMEGAMAX">     -1.00000000</i>
   <i name="DEG_THRESHOLD">      0.00200000</i>
  </separator>
  <separator name="orbital magnetization" >
   <i type="logical" name="NUCIND"> F  </i>
   <v name="MAGPOS">      0.00000000      0.00000000      0.00000000</v>
   <i type="logical" name="LNICSALL"> T  </i>
   <i type="logical" name="ORBITALMAG"> F  </i>
   <i type="logical" name="LMAGBLOCH"> F  </i>
   <i type="logical" name="LCHIMAG"> F  </i>
   <i type="logical" name="LGAUGE"> T  </i>
   <i type="int" name="MAGATOM">     0</i>
   <v name="MAGDIPOL">      0.00000000      0.00000000      0.00000000</v>
   <v name="AVECCONST">      0.00000000      0.00000000      0.00000000</v>
  </separator>
  <separator name="response functions" >
   <i type="logical" name="LADDER"> F  </i>
   <i type="logical" name="LFXC"> F  </i>
   <i type="logical" name="LHARTREE"> T  </i>
   <i type="int" name="IBSE">     0</i>
   <v type="int" name="KPOINT">    -1     0     0     0</v>
   <i type="logical" name="LTCTE"> F  </i>
   <i type="logical" name="LTETE"> F  </i>
   <i type="logical" name="LTRIPLET"> F  </i>
   <i type="logical" name="LFXCEPS"> F  </i>
   <i type="logical" name="LFXHEG"> F  </i>
   <i type="int" name="NATURALO">     0</i>
   <i type="logical" name="L2ORDER"> F  </i>
   <i type="logical" name="LUSEW"> F  </i>
   <i name="ENCUTGW">     -2.00000000</i>
   <i name="ENCUTGWSOFT">     -2.00000000</i>
   <i name="ENCUTLF">     -1.00000000</i>
   <i type="int" name="LMAXMP2">    -1</i>
   <i name="SCISSOR">      0.00000000</i>
   <i type="int" name="NOMEGA">     0</i>
   <i type="int" name="NOMEGAR">     0</i>
   <i type="int" name="NBANDSGW">    -1</i>
   <i type="int" name="NBANDSO">    -1</i>
   <i type="int" name="NBANDSV">    -1</i>
   <i type="int" name="NELM">   100</i>
   <i type="int" name="NELMHF">     1</i>
   <i type="int" name="DIM">     3</i>
   <i type="int" name="ANTIRES">     0</i>
   <i name="OMEGAMAX">    -30.00000000</i>
   <i name="OMEGAMIN">    -30.00000000</i>
   <i name="OMEGATL">   -200.00000000</i>
   <i type="int" name="OMEGAGRID">     0</i>
   <i name="CSHIFT">     -0.10000000</i>
   <i type="logical" name="SELFENERGY"> F  </i>
   <i type="logical" name="LSPECTRAL"> F  </i>
   <i type="logical" name="LSPECTRALGW"> F  </i>
   <i type="logical" name="LSINGLES"> F  </i>
   <i type="logical" name="LFERMIGW"> F  </i>
   <i type="logical" name="ODDONLYGW"> F  </i>
   <i type="logical" name="EVENONLYGW"> F  </i>
   <i type="int" name="NKREDLFX">     1</i>
   <i type="int" name="NKREDLFY">     1</i>
   <i type="int" name="NKREDLFZ">     1</i>
   <i type="int" name="MAXMEM">  1800</i>
   <i type="int" name="TELESCOPE">     0</i>
   <i type="int" name="TAUPAR">     1</i>
   <i type="int" name="OMEGAPAR">    -1</i>
   <i name="LAMBDA">      1.00000000</i>
  </separator>
  <separator name="External order field" >
   <i name="OFIELD_KAPPA">      0.00000000</i>
   <v name="OFIELD_K">      0.00000000      0.00000000      0.00000000</v>
   <i name="OFIELD_Q6_NEAR">      0.00000000</i>
   <i name="OFIELD_Q6_FAR">      0.00000000</i>
   <i name="OFIELD_A">      0.00000000</i>
  </separator>
 </parameters>
 <atominfo>
  <atoms>       4 </atoms>
  <types>       1 </types>
  <array name="atoms" >
   <dimension dim="1">ion</dimension>
   <field type="string">element</field>
   <field type="int">atomtype</field>
   <set>
    <rc><c>Au</c><c>   1</c></rc>
    <rc><c>Au</c><c>   1</c></rc>
    <rc><c>Au</c><c>   1</c></rc>
    <rc><c>Au</c><c>   1</c></rc>
   </set>
  </array>
  <array name="atomtypes" >
   <dimension dim="1">type</dimension>
   <field type="int">atomspertype</field>
   <field type="string">element</field>
   <field>mass</field>
   <field>valence</field>
   <field type="string">pseudopotential</field>
   <set>
    <rc><c>   4</c><c>Au</c><c>    196.96600000</c><c>     11.00000000</c><c>  PAW_PBE Au 04Oct2007                  </c></rc>
   </set>
  </array>
 </atominfo>
 <structure name="initialpos" >
  <crystal>
   <varray name="basis" >
    <v>       2.89786501       0.00000000       0.00000000 </v>
    <v>       1.44893251       2.50962472       0.00000000 </v>
    <v>       0.00000000       0.00000000      22.09829062 </v>
   </varray>
   <i name="volume">    160.71100420 </i>
   <varray name="rec_basis" >
    <v>       0.34508164      -0.19923298       0.00000000 </v>
    <v>       0.00000000       0.39846595       0.00000000 </v>
    <v>       0.00000000       0.00000000       0.04525237 </v>
   </varray>
  </crystal>
  <varray name="positions" >
   <v>       0.00000000       0.00000000       0.50000000 </v>
   <v>       0.44893251       0.83654157       0.86609687 </v>
   <v>       0.00000000       0.67308314       0.23219375 </v>
   <v>       0.00000000       0.00000000       0.59829062 </v>
  </varray>
  <varray name="selective"  type="logical" >
   <v type="logical" >  F  F  F </v>
   <v type="logical" >  T  T  T </v>
   <v type="logical" >  T  T  T </v>
   <v type="logical" >  T  T  T </v>
  </varray>
  <nose>
   <v>      -3.00000000       0.00000000       0.00010000       0.00010000 </v>
  </nose>
 </structure>
 <calculation>
  <scstep>
   <time name="dav">   11.73   12.07</time>
   <time name="total">   11.85   12.23</time>
   <energy>
    <i name="alphaZ">    115.96428566 </i>
    <i name="ewald">    149.26385716 </i>
    <i name="hartreedc">  -4049.77386193 </i>
    <i name="XCdc">     60.62084981 </i>
    <i name="pawpsdc">   3496.08590032 </i>
    <i name="pawaedc">  -3403.74950362 </i>
    <i name="eentropy">     -0.00274521 </i>
    <i name="bandstr">    184.05896213 </i>
    <i name="atom">   3704.32389242 </i>
    <i name="e_fr_energy">    256.79163674 </i>
    <i name="e_wo_entrp">    256.79438195 </i>
    <i name="e_0_energy">    256.79300934 </i>
   </energy>
  </scstep>
  <scstep>
   <time name="dav">   13.10   13.12</time>
   <time name="total">   13.13   13.15</time>
   <energy>
    <i name="e_fr_energy">      1.60637930 </i>
    <i name="e_wo_entrp">      1.60773785 </i>
    <i name="e_0_energy">      1.60705857 </i>
   </energy>
  </scstep>
  <scstep>
   <time name="dav">   12.87   12.88</time>
   <time name="total">   12.90   12.91</time>
   <energy>
    <i name="e_fr_energy">     -9.30259839 </i>
    <i name="e_wo_entrp">     -9.29927392 </i>
    <i name="e_0_energy">     -9.30093615 </i>
   </energy>
  </scstep>
  <scstep>
   <time name="dav">   12.59   12.60</time>
   <time name="total">   12.62   12.64</time>
   <energy>
    <i name="e_fr_energy">     -9.49222333 </i>
    <i name="e_wo_entrp">     -9.48889842 </i>
    <i name="e_0_energy">     -9.49056087 </i>
   </energy>
  </scstep>
  <scstep>
   <time name="dav">   12.60   12.62</time>
   <time name="total">   13.68   13.71</time>
   <energy>
    <i name="e_fr_energy">     -9.49586777 </i>
    <i name="e_wo_entrp">     -9.49254298 </i>
    <i name="e_0_energy">     -9.49420538 </i>
   </energy>
  </scstep>
  <scstep>
   <time name="dav">   11.75   11.76</time>
   <time name="total">   12.84   12.86</time>
   <energy>
    <i name="e_fr_energy">     -5.04438920 </i>
    <i name="e_wo_entrp">     -5.04110857 </i>
    <i name="e_0_energy">     -5.04274888 </i>
   </energy>
  </scstep>
  <scstep>
   <time name="dav">   11.89   11.90</time>
   <time name="total">   12.91   12.94</time>
   <energy>
    <i name="e_fr_energy">     -4.10130388 </i>
    <i name="e_wo_entrp">     -4.09756549 </i>
    <i name="e_0_energy">     -4.09943468 </i>
   </energy>
  </scstep>
  <scstep>
   <time name="dav">   11.88   11.89</time>
   <time name="total">   12.91   12.92</time>
   <energy>
    <i name="e_fr_energy">     -4.29562653 </i>
    <i name="e_wo_entrp">     -4.29244577 </i>
    <i name="e_0_energy">     -4.29403615 </i>
   </energy>
  </scstep>
  <scstep>
   <time name="dav">   12.06   12.07</time>
   <time name="total">   13.10   13.12</time>
   <energy>
    <i name="e_fr_energy">     -4.91808191 </i>
    <i name="e_wo_entrp">     -4.91530469 </i>
    <i name="e_0_energy">     -4.91669330 </i>
   </energy>
  </scstep>
  <scstep>
   <time name="dav">   12.04   12.05</time>
   <time name="total">   13.09   13.13</time>
   <energy>
    <i name="e_fr_energy">     -5.44668087 </i>
    <i name="e_wo_entrp">     -5.44316343 </i>
    <i name="e_0_energy">     -5.44492215 </i>
   </energy>
  </scstep>
  <scstep>
   <time name="dav">   11.92   11.93</time>
   <time name="total">   12.98   13.00</time>
   <energy>
    <i name="e_fr_energy">     -6.08876081 </i>
    <i name="e_wo_entrp">     -6.08613302 </i>
    <i name="e_0_energy">     -6.08744692 </i>
   </energy>
  </scstep>
  <scstep>
   <time name="dav">   12.04   12.05</time>
   <time name="total">   13.08   13.09</time>
   <energy>
    <i name="e_fr_energy">     -7.37259860 </i>
    <i name="e_wo_entrp">     -7.37056325 </i>
    <i name="e_0_energy">     -7.37158093 </i>
   </energy>
  </scstep>
  <scstep>
   <time name="dav">   12.16   12.17</time>
   <time name="total">   13.22   13.24</time>
   <energy>
    <i name="e_fr_energy">     -8.17547139 </i>
    <i name="e_wo_entrp">     -8.17350553 </i>
    <i name="e_0_energy">     -8.17448846 </i>
   </energy>
  </scstep>
  <scstep>
   <time name="dav">   11.75   11.76</time>
   <time name="total">   12.78   12.80</time>
   <energy>
    <i name="e_fr_energy">     -8.47733531 </i>
    <i name="e_wo_entrp">     -8.47409891 </i>
    <i name="e_0_energy">     -8.47571711 </i>
   </energy>
  </scstep>
  <scstep>
   <time name="dav">   12.02   12.04</time>
   <time name="total">   13.09   13.11</time>
   <energy>
    <i name="e_fr_energy">     -8.70072398 </i>
    <i name="e_wo_entrp">     -8.69600360 </i>
    <i name="e_0_energy">     -8.69836379 </i>
   </energy>
  </scstep>
  <scstep>
   <time name="dav">   11.70   11.72</time>
   <time name="total">   12.77   12.79</time>
   <energy>
    <i name="e_fr_energy">     -8.84666284 </i>
    <i name="e_wo_entrp">     -8.84234199 </i>
    <i name="e_0_energy">     -8.84450241 </i>
   </energy>
  </scstep>
  <scstep>
   <time name="dav">   12.04   12.06</time>
   <time name="total">   13.07   13.09</time>
   <energy>
    <i name="e_fr_energy">     -8.89202749 </i>
    <i name="e_wo_entrp">     -8.88760265 </i>
    <i name="e_0_energy">     -8.88981507 </i>
   </energy>
  </scstep>
  <scstep>
   <time name="dav">   11.57   11.58</time>
   <time name="total">   12.58   12.60</time>
   <energy>
    <i name="e_fr_energy">     -8.97634200 </i>
    <i name="e_wo_entrp">     -8.97053272 </i>
    <i name="e_0_energy">     -8.97343736 </i>
   </energy>
  </scstep>
  <scstep>
   <time name="dav">   11.97   11.98</time>
   <time name="total">   13.02   13.03</time>
   <energy>
    <i name="e_fr_energy">     -8.99966320 </i>
    <i name="e_wo_entrp">     -8.99419372 </i>
    <i name="e_0_energy">     -8.99692846 </i>
   </energy>
  </scstep>
  <scstep>
   <time name="dav">   11.54   11.55</time>
   <time name="total">   12.56   12.57</time>
   <energy>
    <i name="e_fr_energy">     -9.04783879 </i>
    <i name="e_wo_entrp">     -9.04242436 </i>
    <i name="e_0_energy">     -9.04513158 </i>
   </energy>
  </scstep>
  <scstep>
   <time name="dav">   11.90   11.92</time>
   <time name="total">   12.96   12.99</time>
   <energy>
    <i name="e_fr_energy">     -9.05727422 </i>
    <i name="e_wo_entrp">     -9.05172512 </i>
    <i name="e_0_energy">     -9.05449967 </i>
   </energy>
  </scstep>
  <scstep>
   <time name="dav">   11.56   11.58</time>
   <time name="total">   12.60   12.61</time>
   <energy>
    <i name="e_fr_energy">     -9.06253549 </i>
    <i name="e_wo_entrp">     -9.05692872 </i>
    <i name="e_0_energy">     -9.05973211 </i>
   </energy>
  </scstep>
  <scstep>
   <time name="dav">   11.91   11.92</time>
   <time name="total">   12.97   13.02</time>
   <energy>
    <i name="e_fr_energy">     -9.06306037 </i>
    <i name="e_wo_entrp">     -9.05742763 </i>
    <i name="e_0_energy">     -9.06024400 </i>
   </energy>
  </scstep>
  <scstep>
   <time name="dav">   11.88   11.90</time>
   <time name="total">   12.96   12.98</time>
   <energy>
    <i name="e_fr_energy">     -9.06358253 </i>
    <i name="e_wo_entrp">     -9.05795236 </i>
    <i name="e_0_energy">     -9.06076744 </i>
   </energy>
  </scstep>
  <scstep>
   <time name="dav">   11.88   11.89</time>
   <time name="total">   12.94   12.95</time>
   <energy>
    <i name="e_fr_energy">     -9.06373760 </i>
    <i name="e_wo_entrp">     -9.05811047 </i>
    <i name="e_0_energy">     -9.06092404 </i>
   </energy>
  </scstep>
  <scstep>
   <time name="dav">   11.48   11.49</time>
   <time name="total">   12.53   12.55</time>
   <energy>
    <i name="e_fr_energy">     -9.06385351 </i>
    <i name="e_wo_entrp">     -9.05822617 </i>
    <i name="e_0_energy">     -9.06103984 </i>
   </energy>
  </scstep>
  <scstep>
   <time name="dav">   11.29   11.31</time>
   <time name="total">   12.36   12.39</time>
   <energy>
    <i name="e_fr_energy">     -9.06397925 </i>
    <i name="e_wo_entrp">     -9.05835069 </i>
    <i name="e_0_energy">     -9.06116497 </i>
   </energy>
  </scstep>
  <scstep>
   <time name="dav">   10.69   10.70</time>
   <time name="total">   11.73   11.75</time>
   <energy>
    <i name="e_fr_energy">     -9.06406593 </i>
    <i name="e_wo_entrp">     -9.05843664 </i>
    <i name="e_0_energy">     -9.06125129 </i>
   </energy>
  </scstep>
  <scstep>
   <time name="dav">   11.18   11.19</time>
   <time name="total">   12.22   12.23</time>
   <energy>
    <i name="e_fr_energy">     -9.06408164 </i>
    <i name="e_wo_entrp">     -9.05844782 </i>
    <i name="e_0_energy">     -9.06126473 </i>
   </energy>
  </scstep>
  <scstep>
   <time name="dav">    9.95    9.97</time>
   <time name="total">   10.07   10.11</time>
   <energy>
    <i name="alphaZ">    115.96428566 </i>
    <i name="ewald">    149.26385716 </i>
    <i name="hartreedc">  -4003.81824682 </i>
    <i name="XCdc">     58.65992667 </i>
    <i name="pawpsdc">   4155.11203811 </i>
    <i name="pawaedc">  -4072.59401782 </i>
    <i name="eentropy">     -0.00563205 </i>
    <i name="bandstr">   -115.97018443 </i>
    <i name="atom">   3704.32389242 </i>
    <i name="e_fr_energy">     -9.06408108 </i>
    <i name="e_wo_entrp">     -9.05844904 </i>
    <i name="e_0_energy">     -9.06126506 </i>
   </energy>
  </scstep>
  <dipole>
   <v name="dipole">      0.00000000       0.00000000       0.00017118 </v>
   <i name="Tr[quadrupol]">    -29.20921685 </i>
   <i name="Echarged">      0.00000000 </i>
   <i name="Edipol_quadrupol">      0.00000000 </i>
   <i name="Eion">      0.00000000 </i>
  </dipole>
  <structure>
   <crystal>
    <varray name="basis" >
     <v>       2.89786501       0.00000000       0.00000000 </v>
     <v>       1.44893251       2.50962472       0.00000000 </v>
     <v>       0.00000000       0.00000000      22.09829062 </v>
    </varray>
    <i name="volume">    160.71100420 </i>
    <varray name="rec_basis" >
     <v>       0.34508164      -0.19923298       0.00000000 </v>
     <v>       0.00000000       0.39846595       0.00000000 </v>
     <v>       0.00000000       0.00000000       0.04525237 </v>
    </varray>
   </crystal>
   <varray name="positions" >
    <v>       0.00000000       0.00000000       0.50000000 </v>
    <v>       0.44893251       0.83654157       0.86609687 </v>
    <v>       0.00000000       0.67308314       0.23219375 </v>
    <v>       0.00000000       0.00000000       0.59829062 </v>
   </varray>
  </structure>
  <varray name="forces" >
   <v>       0.00051225       0.00019564     -11.55320323 </v>
   <v>      -0.00116876      -0.00070169      -0.04027590 </v>
   <v>       0.00045631       0.00043021       0.04017220 </v>
   <v>       0.00020020       0.00007584      11.55330693 </v>
  </varray>
  <varray name="stress" >
   <v>     -53.26663721       0.02779178       0.00371020 </v>
   <v>       0.02779180     -53.22607955       0.00848394 </v>
   <v>       0.00371024       0.00848404     243.24150230 </v>
  </varray>
  <energy>
   <i name="e_fr_energy">    -10.30591767 </i>
   <i name="e_wo_entrp">    -10.30310164 </i>
   <i name="e_0_energy">     -0.00563205 </i>
  </energy>
  <time name="totalsc">  400.02  401.29</time>
 </calculation>
 <calculation>
  <scstep>
   <time name="dav">   11.64   11.65</time>
   <time name="total">   12.75   12.81</time>
   <energy>
    <i name="alphaZ">    115.96428566 </i>
    <i name="ewald">    -96.10643411 </i>
    <i name="hartreedc">  -3765.25517990 </i>
    <i name="XCdc">     58.03834198 </i>
    <i name="pawpsdc">   4155.10807961 </i>
    <i name="pawaedc">  -4072.58991960 </i>
    <i name="eentropy">     -0.00400160 </i>
    <i name="bandstr">   -110.02900378 </i>
    <i name="atom">   3704.32389242 </i>
    <i name="e_fr_energy">    -10.54993932 </i>
    <i name="e_wo_entrp">    -10.54593772 </i>
    <i name="e_0_energy">    -10.54793852 </i>
   </energy>
  </scstep>
  <scstep>
   <time name="dav">   11.75   11.76</time>
   <time name="total">   12.78   12.80</time>
   <energy>
    <i name="e_fr_energy">    -11.01895061 </i>
    <i name="e_wo_entrp">    -11.01635851 </i>
    <i name="e_0_energy">    -11.01765456 </i>
   </energy>
  </scstep>
  <scstep>
   <time name="dav">   12.33   12.35</time>
   <time name="total">   13.36   13.39</time>
   <energy>
    <i name="e_fr_energy">    -11.02715603 </i>
    <i name="e_wo_entrp">    -11.02456997 </i>
    <i name="e_0_energy">    -11.02586300 </i>
   </energy>
  </scstep>
  <scstep>
   <time name="dav">   11.93   11.94</time>
   <time name="total">   12.97   12.99</time>
   <energy>
    <i name="e_fr_energy">    -10.96434648 </i>
    <i name="e_wo_entrp">    -10.95874313 </i>
    <i name="e_0_energy">    -10.96154481 </i>
   </energy>
  </scstep>
  <scstep>
   <time name="dav">   12.48   12.50</time>
   <time name="total">   13.54   13.56</time>
   <energy>
    <i name="e_fr_energy">    -11.05720252 </i>
    <i name="e_wo_entrp">    -11.05455949 </i>
    <i name="e_0_energy">    -11.05588100 </i>
   </energy>
  </scstep>
  <scstep>
   <time name="dav">   12.52   12.53</time>
   <time name="total">   13.56   13.58</time>
   <energy>
    <i name="e_fr_energy">    -11.31001823 </i>
    <i name="e_wo_entrp">    -11.30877186 </i>
    <i name="e_0_energy">    -11.30939505 </i>
   </energy>
  </scstep>
  <scstep>
   <time name="dav">   11.88   11.89</time>
   <time name="total">   12.99   13.03</time>
   <energy>
    <i name="e_fr_energy">    -12.49615442 </i>
    <i name="e_wo_entrp">    -12.49364037 </i>
    <i name="e_0_energy">    -12.49489739 </i>
   </energy>
  </scstep>
  <scstep>
   <time name="dav">   12.35   12.37</time>
   <time name="total">   13.38   13.40</time>
   <energy>
    <i name="e_fr_energy">    -12.89843103 </i>
    <i name="e_wo_entrp">    -12.89703634 </i>
    <i name="e_0_energy">    -12.89773369 </i>
   </energy>
  </scstep>
  <scstep>
   <time name="dav">   11.81   11.82</time>
   <time name="total">   12.92   12.95</time>
   <energy>
    <i name="e_fr_energy">    -17.32512678 </i>
    <i name="e_wo_entrp">    -17.32030888 </i>
    <i name="e_0_energy">    -17.32271783 </i>
   </energy>
  </scstep>
  <scstep>
   <time name="dav">   11.91   11.92</time>
   <time name="total">   12.99   13.01</time>
   <energy>
    <i name="e_fr_energy">    -15.49707573 </i>
    <i name="e_wo_entrp">    -15.49357463 </i>
    <i name="e_0_energy">    -15.49532518 </i>
   </energy>
  </scstep>
  <scstep>
   <time name="dav">   11.92   11.93</time>
   <time name="total">   12.98   12.99</time>
   <energy>
    <i name="e_fr_energy">    -12.78912889 </i>
    <i name="e_wo_entrp">    -12.78712983 </i>
    <i name="e_0_energy">    -12.78812936 </i>
   </energy>
  </scstep>
  <scstep>
   <time name="dav">   11.93   11.94</time>
   <time name="total">   12.96   12.98</time>
   <energy>
    <i name="e_fr_energy">    -11.15201766 </i>
    <i name="e_wo_entrp">    -11.15136704 </i>
    <i name="e_0_energy">    -11.15169235 </i>
   </energy>
  </scstep>
  <scstep>
   <time name="dav">   12.26   12.27</time>
   <time name="total">   13.32   13.34</time>
   <energy>
    <i name="e_fr_energy">    -12.44985523 </i>
    <i name="e_wo_entrp">    -12.44482275 </i>
    <i name="e_0_energy">    -12.44733899 </i>
   </energy>
  </scstep>
  <scstep>
   <time name="dav">   12.06   12.07</time>
   <time name="total">   13.11   13.13</time>
   <energy>
    <i name="e_fr_energy">    -12.26908976 </i>
    <i name="e_wo_entrp">    -12.26391902 </i>
    <i name="e_0_energy">    -12.26650439 </i>
   </energy>
  </scstep>
  <scstep>
   <time name="dav">   12.94   12.95</time>
   <time name="total">   14.04   14.05</time>
   <energy>
    <i name="e_fr_energy">    -12.36234160 </i>
    <i name="e_wo_entrp">    -12.35754692 </i>
    <i name="e_0_energy">    -12.35994426 </i>
   </energy>
  </scstep>
  <scstep>
   <time name="dav">   12.08   12.09</time>
   <time name="total">   13.12   13.13</time>
   <energy>
    <i name="e_fr_energy">    -12.15150754 </i>
    <i name="e_wo_entrp">    -12.14813671 </i>
    <i name="e_0_energy">    -12.14982213 </i>
   </energy>
  </scstep>
  <scstep>
   <time name="dav">   12.28   12.29</time>
   <time name="total">   13.36   13.37</time>
   <energy>
    <i name="e_fr_energy">    -12.40538274 </i>
    <i name="e_wo_entrp">    -12.40053501 </i>
    <i name="e_0_energy">    -12.40295888 </i>
   </energy>
  </scstep>
  <scstep>
   <time name="dav">   12.27   12.28</time>
   <time name="total">   13.31   13.32</time>
   <energy>
    <i name="e_fr_energy">    -11.64290781 </i>
    <i name="e_wo_entrp">    -11.63849391 </i>
    <i name="e_0_energy">    -11.64070086 </i>
   </energy>
  </scstep>
  <scstep>
   <time name="dav">   12.19   12.20</time>
   <time name="total">   13.25   13.27</time>
   <energy>
    <i name="e_fr_energy">    -11.24775226 </i>
    <i name="e_wo_entrp">    -11.24464823 </i>
    <i name="e_0_energy">    -11.24620025 </i>
   </energy>
  </scstep>
  <scstep>
   <time name="dav">   12.24   12.25</time>
   <time name="total">   13.28   13.30</time>
   <energy>
    <i name="e_fr_energy">    -11.06382150 </i>
    <i name="e_wo_entrp">    -11.06059563 </i>
    <i name="e_0_energy">    -11.06220857 </i>
   </energy>
  </scstep>
  <scstep>
   <time name="dav">   12.26   12.27</time>
   <time name="total">   13.30   13.32</time>
   <energy>
    <i name="e_fr_energy">    -10.98600869 </i>
    <i name="e_wo_entrp">    -10.98452436 </i>
    <i name="e_0_energy">    -10.98526653 </i>
   </energy>
  </scstep>
  <scstep>
   <time name="dav">   12.13   12.14</time>
   <time name="total">   13.20   13.22</time>
   <energy>
    <i name="e_fr_energy">    -10.97075191 </i>
    <i name="e_wo_entrp">    -10.96893020 </i>
    <i name="e_0_energy">    -10.96984105 </i>
   </energy>
  </scstep>
  <scstep>
   <time name="dav">   12.13   12.14</time>
   <time name="total">   13.16   13.18</time>
   <energy>
    <i name="e_fr_energy">    -10.94491013 </i>
    <i name="e_wo_entrp">    -10.94259048 </i>
    <i name="e_0_energy">    -10.94375030 </i>
   </energy>
  </scstep>
  <scstep>
   <time name="dav">   12.28   12.29</time>
   <time name="total">   13.33   13.35</time>
   <energy>
    <i name="e_fr_energy">    -10.91678012 </i>
    <i name="e_wo_entrp">    -10.91008733 </i>
    <i name="e_0_energy">    -10.91343372 </i>
   </energy>
  </scstep>
  <scstep>
   <time name="dav">   12.43   12.45</time>
   <time name="total">   13.48   13.49</time>
   <energy>
    <i name="e_fr_energy">    -10.90312880 </i>
    <i name="e_wo_entrp">    -10.89641775 </i>
    <i name="e_0_energy">    -10.89977328 </i>
   </energy>
  </scstep>
  <scstep>
   <time name="dav">   12.44   12.45</time>
   <time name="total">   13.58   13.59</time>
   <energy>
    <i name="e_fr_energy">    -10.89896515 </i>
    <i name="e_wo_entrp">    -10.89066736 </i>
    <i name="e_0_energy">    -10.89481625 </i>
   </energy>
  </scstep>
  <scstep>
   <time name="dav">   12.19   12.22</time>
   <time name="total">   13.28   13.31</time>
   <energy>
    <i name="e_fr_energy">    -10.89426302 </i>
    <i name="e_wo_entrp">    -10.88612446 </i>
    <i name="e_0_energy">    -10.89019374 </i>
   </energy>
  </scstep>
  <scstep>
   <time name="dav">   12.56   12.57</time>
   <time name="total">   13.64   13.66</time>
   <energy>
    <i name="e_fr_energy">    -10.89377748 </i>
    <i name="e_wo_entrp">    -10.88531117 </i>
    <i name="e_0_energy">    -10.88954433 </i>
   </energy>
  </scstep>
  <scstep>
   <time name="dav">   12.57   12.58</time>
   <time name="total">   13.64   13.65</time>
   <energy>
    <i name="e_fr_energy">    -10.89387202 </i>
    <i name="e_wo_entrp">    -10.88587178 </i>
    <i name="e_0_energy">    -10.88987190 </i>
   </energy>
  </scstep>
  <scstep>
   <time name="dav">   12.26   12.27</time>
   <time name="total">   13.49   13.50</time>
   <energy>
    <i name="e_fr_energy">    -10.89337618 </i>
    <i name="e_wo_entrp">    -10.88501430 </i>
    <i name="e_0_energy">    -10.88919524 </i>
   </energy>
  </scstep>
  <scstep>
   <time name="dav">   12.35   12.36</time>
   <time name="total">   13.40   13.42</time>
   <energy>
    <i name="e_fr_energy">    -10.89332288 </i>
    <i name="e_wo_entrp">    -10.88474950 </i>
    <i name="e_0_energy">    -10.88903619 </i>
   </energy>
  </scstep>
  <scstep>
   <time name="dav">   11.85   11.87</time>
   <time name="total">   12.88   12.90</time>
   <energy>
    <i name="e_fr_energy">    -10.89324996 </i>
    <i name="e_wo_entrp">    -10.88476248 </i>
    <i name="e_0_energy">    -10.88900622 </i>
   </energy>
  </scstep>
  <scstep>
   <time name="dav">   12.42   12.43</time>
   <time name="total">   13.46   13.48</time>
   <energy>
    <i name="e_fr_energy">    -10.89325690 </i>
    <i name="e_wo_entrp">    -10.88482102 </i>
    <i name="e_0_energy">    -10.88903896 </i>
   </energy>
  </scstep>
  <scstep>
   <time name="dav">   12.02   12.04</time>
   <time name="total">   13.11   13.13</time>
   <energy>
    <i name="e_fr_energy">    -10.89324827 </i>
    <i name="e_wo_entrp">    -10.88480350 </i>
    <i name="e_0_energy">    -10.88902588 </i>
   </energy>
  </scstep>
  <scstep>
   <time name="dav">    9.72    9.73</time>
   <time name="total">   10.78   10.80</time>
   <energy>
    <i name="e_fr_energy">    -10.89324046 </i>
    <i name="e_wo_entrp">    -10.88475296 </i>
    <i name="e_0_energy">    -10.88899671 </i>
   </energy>
  </scstep>
  <scstep>
   <time name="dav">    8.32    8.32</time>
   <time name="total">    8.42    8.43</time>
   <energy>
    <i name="alphaZ">    115.96428566 </i>
    <i name="ewald">    -96.10643411 </i>
    <i name="hartreedc">  -3765.48608503 </i>
    <i name="XCdc">     58.02548671 </i>
    <i name="pawpsdc">   3954.46441898 </i>
    <i name="pawaedc">  -3870.68506715 </i>
    <i name="eentropy">     -0.00848767 </i>
    <i name="bandstr">   -111.38524982 </i>
    <i name="atom">   3704.32389242 </i>
    <i name="e_fr_energy">    -10.89324000 </i>
    <i name="e_wo_entrp">    -10.88475233 </i>
    <i name="e_0_energy">    -10.88899616 </i>
   </energy>
  </scstep>
  <dipole>
   <v name="dipole">      0.00000000       0.00000000       0.00045931 </v>
   <i name="Tr[quadrupol]">    -29.37566160 </i>
   <i name="Echarged">      0.00000000 </i>
   <i name="Edipol_quadrupol">      0.00000000 </i>
   <i name="Eion">      0.00000000 </i>
  </dipole>
  <structure>
   <crystal>
    <varray name="basis" >
     <v>       2.89786501       0.00000000       0.00000000 </v>
     <v>       1.44893251       2.50962472       0.00000000 </v>
     <v>       0.00000000       0.00000000      22.09829062 </v>
    </varray>
    <i name="volume">    160.71100420 </i>
    <varray name="rec_basis" >
     <v>       0.34508164      -0.19923298       0.00000000 </v>
     <v>       0.00000000       0.39846595       0.00000000 </v>
     <v>       0.00000000       0.00000000       0.04525237 </v>
    </varray>
   </crystal>
   <varray name="positions" >
    <v>       0.00000000       0.00000000       0.50000000 </v>
    <v>       0.44892615       0.83653483       0.86605291 </v>
    <v>       0.00000173       0.67308728       0.23223760 </v>
    <v>       0.00000130       0.00000073       0.61090160 </v>
   </varray>
  </structure>
  <varray name="forces" >
   <v>       0.00045825       0.00025891      -3.12419137 </v>
   <v>      -0.00078260      -0.00051231      -0.05142661 </v>
   <v>       0.00019065       0.00010926       0.03797843 </v>
   <v>       0.00013371       0.00014414       3.13763955 </v>
  </varray>
  <varray name="stress" >
   <v>     -72.47348918       0.02403089      -0.00295591 </v>
   <v>       0.02403083     -72.43349098       0.00840198 </v>
   <v>      -0.00295593       0.00840192      68.86954438 </v>
  </varray>
  <energy>
   <i name="e_fr_energy">    -12.12591888 </i>
   <i name="e_wo_entrp">    -12.12167504 </i>
   <i name="e_0_energy">     -0.00848767 </i>
  </energy>
  <time name="totalsc">  488.54  489.29</time>
 </calculation>
 <calculation>
  <scstep>
   <time name="dav">   11.46   11.47</time>
   <time name="total">   12.51   12.54</time>
   <energy>
    <i name="alphaZ">    115.96428566 </i>
    <i name="ewald">   -178.29143046 </i>
    <i name="hartreedc">  -3684.67669699 </i>
    <i name="XCdc">     57.85285464 </i>
    <i name="pawpsdc">   3954.44839842 </i>
    <i name="pawaedc">  -3870.66948905 </i>
    <i name="eentropy">     -0.00767256 </i>
    <i name="bandstr">   -110.04420963 </i>
    <i name="atom">   3704.32389242 </i>
    <i name="e_fr_energy">    -11.10006755 </i>
    <i name="e_wo_entrp">    -11.09239499 </i>
    <i name="e_0_energy">    -11.09623127 </i>
   </energy>
  </scstep>
  <scstep>
   <time name="dav">   12.26   12.28</time>
   <time name="total">   13.32   13.36</time>
   <energy>
    <i name="e_fr_energy">    -11.18796924 </i>
    <i name="e_wo_entrp">    -11.18302884 </i>
    <i name="e_0_energy">    -11.18549904 </i>
   </energy>
  </scstep>
  <scstep>
   <time name="dav">   12.02   12.04</time>
   <time name="total">   13.11   13.13</time>
   <energy>
    <i name="e_fr_energy">    -11.18019224 </i>
    <i name="e_wo_entrp">    -11.17401441 </i>
    <i name="e_0_energy">    -11.17710333 </i>
   </energy>
  </scstep>
  <scstep>
   <time name="dav">   12.07   12.09</time>
   <time name="total">   13.11   13.14</time>
   <energy>
    <i name="e_fr_energy">    -11.17320189 </i>
    <i name="e_wo_entrp">    -11.17099663 </i>
    <i name="e_0_energy">    -11.17209926 </i>
   </energy>
  </scstep>
  <scstep>
   <time name="dav">   12.31   12.32</time>
   <time name="total">   13.40   13.41</time>
   <energy>
    <i name="e_fr_energy">    -11.18451186 </i>
    <i name="e_wo_entrp">    -11.18374054 </i>
    <i name="e_0_energy">    -11.18412620 </i>
   </energy>
  </scstep>
  <scstep>
   <time name="dav">   12.57   12.58</time>
   <time name="total">   13.66   13.68</time>
   <energy>
    <i name="e_fr_energy">    -11.15559784 </i>
    <i name="e_wo_entrp">    -11.14843643 </i>
    <i name="e_0_energy">    -11.15201713 </i>
   </energy>
  </scstep>
  <scstep>
   <time name="dav">   12.08   12.09</time>
   <time name="total">   13.10   13.12</time>
   <energy>
    <i name="e_fr_energy">    -11.15334057 </i>
    <i name="e_wo_entrp">    -11.14589822 </i>
    <i name="e_0_energy">    -11.14961940 </i>
   </energy>
  </scstep>
  <scstep>
   <time name="dav">   12.36   12.38</time>
   <time name="total">   13.42   13.45</time>
   <energy>
    <i name="e_fr_energy">    -11.15330163 </i>
    <i name="e_wo_entrp">    -11.14528569 </i>
    <i name="e_0_energy">    -11.14929366 </i>
   </energy>
  </scstep>
  <scstep>
   <time name="dav">   12.23   12.25</time>
   <time name="total">   13.26   13.28</time>
   <energy>
    <i name="e_fr_energy">    -11.15218512 </i>
    <i name="e_wo_entrp">    -11.14375875 </i>
    <i name="e_0_energy">    -11.14797193 </i>
   </energy>
  </scstep>
  <scstep>
   <time name="dav">   12.53   12.54</time>
   <time name="total">   13.56   13.58</time>
   <energy>
    <i name="e_fr_energy">    -11.15214163 </i>
    <i name="e_wo_entrp">    -11.14363570 </i>
    <i name="e_0_energy">    -11.14788866 </i>
   </energy>
  </scstep>
  <scstep>
   <time name="dav">   12.31   12.32</time>
   <time name="total">   13.39   13.43</time>
   <energy>
    <i name="e_fr_energy">    -11.15211561 </i>
    <i name="e_wo_entrp">    -11.14368195 </i>
    <i name="e_0_energy">    -11.14789878 </i>
   </energy>
  </scstep>
  <scstep>
   <time name="dav">    9.79    9.80</time>
   <time name="total">   10.85   10.87</time>
   <energy>
    <i name="e_fr_energy">    -11.15209887 </i>
    <i name="e_wo_entrp">    -11.14361728 </i>
    <i name="e_0_energy">    -11.14785807 </i>
   </energy>
  </scstep>
  <scstep>
   <time name="dav">    8.21    8.22</time>
   <time name="total">    8.30    8.31</time>
   <energy>
    <i name="alphaZ">    115.96428566 </i>
    <i name="ewald">   -178.29143046 </i>
    <i name="hartreedc">  -3684.51867139 </i>
    <i name="XCdc">     57.85501373 </i>
    <i name="pawpsdc">   3913.02050676 </i>
    <i name="pawaedc">  -3828.96662775 </i>
    <i name="eentropy">     -0.00847348 </i>
    <i name="bandstr">   -110.53059388 </i>
    <i name="atom">   3704.32389242 </i>
    <i name="e_fr_energy">    -11.15209838 </i>
    <i name="e_wo_entrp">    -11.14362490 </i>
    <i name="e_0_energy">    -11.14786164 </i>
   </energy>
  </scstep>
  <dipole>
   <v name="dipole">      0.00000000       0.00000000       0.00054941 </v>
   <i name="Tr[quadrupol]">    -29.37243098 </i>
   <i name="Echarged">      0.00000000 </i>
   <i name="Edipol_quadrupol">      0.00000000 </i>
   <i name="Eion">      0.00000000 </i>
  </dipole>
  <structure>
   <crystal>
    <varray name="basis" >
     <v>       2.89786501       0.00000000       0.00000000 </v>
     <v>       1.44893251       2.50962472       0.00000000 </v>
     <v>       0.00000000       0.00000000      22.09829062 </v>
    </varray>
    <i name="volume">    160.71100420 </i>
    <varray name="rec_basis" >
     <v>       0.34508164      -0.19923298       0.00000000 </v>
     <v>       0.00000000       0.39846595       0.00000000 </v>
     <v>       0.00000000       0.00000000       0.04525237 </v>
    </varray>
   </crystal>
   <varray name="positions" >
    <v>       0.00000000       0.00000000       0.50000000 </v>
    <v>       0.44892378       0.83653231       0.86603652 </v>
    <v>       0.00000238       0.67308882       0.23225395 </v>
    <v>       0.00000179       0.00000100       0.61560387 </v>
   </varray>
  </structure>
  <varray name="forces" >
   <v>       0.00046041       0.00026358      -1.74771635 </v>
   <v>      -0.00080983      -0.00057884      -0.05586593 </v>
   <v>       0.00022266       0.00016531       0.03800788 </v>
   <v>       0.00012675       0.00014995       1.76557440 </v>
  </varray>
  <varray name="stress" >
   <v>     -77.85065109       0.02181725      -0.00192094 </v>
   <v>       0.02181727     -77.81287292       0.01105401 </v>
   <v>      -0.00192093       0.01105395      36.76753253 </v>
  </varray>
  <energy>
   <i name="e_fr_energy">    -12.37271012 </i>
   <i name="e_wo_entrp">    -12.36847338 </i>
   <i name="e_0_energy">     -0.00847348 </i>
  </energy>
  <time name="totalsc">  183.20  183.54</time>
 </calculation>
 <calculation>
  <scstep>
   <time name="dav">   11.47   11.48</time>
   <time name="total">   12.53   12.55</time>
   <energy>
    <i name="alphaZ">    115.96428566 </i>
    <i name="ewald">   -328.26483725 </i>
    <i name="hartreedc">  -3536.65627762 </i>
    <i name="XCdc">     57.59842327 </i>
    <i name="pawpsdc">   3913.02080336 </i>
    <i name="pawaedc">  -3828.96689573 </i>
    <i name="eentropy">     -0.00144904 </i>
    <i name="bandstr">   -108.22098650 </i>
    <i name="atom">   3704.32389242 </i>
    <i name="e_fr_energy">    -11.20304143 </i>
    <i name="e_wo_entrp">    -11.20159238 </i>
    <i name="e_0_energy">    -11.20231691 </i>
   </energy>
  </scstep>
  <scstep>
   <time name="dav">   11.90   11.91</time>
   <time name="total">   12.94   12.96</time>
   <energy>
    <i name="e_fr_energy">    -11.43133386 </i>
    <i name="e_wo_entrp">    -11.42519607 </i>
    <i name="e_0_energy">    -11.42826497 </i>
   </energy>
  </scstep>
  <scstep>
   <time name="dav">   12.32   12.33</time>
   <time name="total">   13.35   13.36</time>
   <energy>
    <i name="e_fr_energy">    -11.40003491 </i>
    <i name="e_wo_entrp">    -11.39537469 </i>
    <i name="e_0_energy">    -11.39770480 </i>
   </energy>
  </scstep>
  <scstep>
   <time name="dav">   12.48   12.50</time>
   <time name="total">   13.50   13.53</time>
   <energy>
    <i name="e_fr_energy">    -11.43349678 </i>
    <i name="e_wo_entrp">    -11.43272838 </i>
    <i name="e_0_energy">    -11.43311258 </i>
   </energy>
  </scstep>
  <scstep>
   <time name="dav">   12.49   12.50</time>
   <time name="total">   13.53   13.54</time>
   <energy>
    <i name="e_fr_energy">    -11.44235549 </i>
    <i name="e_wo_entrp">    -11.44105201 </i>
    <i name="e_0_energy">    -11.44170375 </i>
   </energy>
  </scstep>
  <scstep>
   <time name="dav">   12.59   12.60</time>
   <time name="total">   13.68   13.69</time>
   <energy>
    <i name="e_fr_energy">    -11.42001418 </i>
    <i name="e_wo_entrp">    -11.41796682 </i>
    <i name="e_0_energy">    -11.41899050 </i>
   </energy>
  </scstep>
  <scstep>
   <time name="dav">   12.81   12.83</time>
   <time name="total">   13.88   13.89</time>
   <energy>
    <i name="e_fr_energy">    -11.41640572 </i>
    <i name="e_wo_entrp">    -11.41524371 </i>
    <i name="e_0_energy">    -11.41582471 </i>
   </energy>
  </scstep>
  <scstep>
   <time name="dav">   12.12   12.14</time>
   <time name="total">   13.23   13.25</time>
   <energy>
    <i name="e_fr_energy">    -11.40286822 </i>
    <i name="e_wo_entrp">    -11.39916847 </i>
    <i name="e_0_energy">    -11.40101834 </i>
   </energy>
  </scstep>
  <scstep>
   <time name="dav">   12.62   12.64</time>
   <time name="total">   13.68   13.70</time>
   <energy>
    <i name="e_fr_energy">    -11.38991324 </i>
    <i name="e_wo_entrp">    -11.38574070 </i>
    <i name="e_0_energy">    -11.38782697 </i>
   </energy>
  </scstep>
  <scstep>
   <time name="dav">   12.93   12.95</time>
   <time name="total">   13.97   13.99</time>
   <energy>
    <i name="e_fr_energy">    -11.38505351 </i>
    <i name="e_wo_entrp">    -11.38069084 </i>
    <i name="e_0_energy">    -11.38287217 </i>
   </energy>
  </scstep>
  <scstep>
   <time name="dav">   12.55   12.57</time>
   <time name="total">   13.69   13.71</time>
   <energy>
    <i name="e_fr_energy">    -11.39101120 </i>
    <i name="e_wo_entrp">    -11.38636320 </i>
    <i name="e_0_energy">    -11.38868720 </i>
   </energy>
  </scstep>
  <scstep>
   <time name="dav">   12.73   12.74</time>
   <time name="total">   13.94   13.96</time>
   <energy>
    <i name="e_fr_energy">    -11.42829453 </i>
    <i name="e_wo_entrp">    -11.42752958 </i>
    <i name="e_0_energy">    -11.42791205 </i>
   </energy>
  </scstep>
  <scstep>
   <time name="dav">   12.47   12.48</time>
   <time name="total">   13.51   13.53</time>
   <energy>
    <i name="e_fr_energy">    -11.38203414 </i>
    <i name="e_wo_entrp">    -11.37667981 </i>
    <i name="e_0_energy">    -11.37935697 </i>
   </energy>
  </scstep>
  <scstep>
   <time name="dav">   11.65   11.66</time>
   <time name="total">   12.68   12.70</time>
   <energy>
    <i name="e_fr_energy">    -11.37971973 </i>
    <i name="e_wo_entrp">    -11.37312784 </i>
    <i name="e_0_energy">    -11.37642378 </i>
   </energy>
  </scstep>
  <scstep>
   <time name="dav">   12.36   12.38</time>
   <time name="total">   13.44   13.46</time>
   <energy>
    <i name="e_fr_energy">    -11.37998639 </i>
    <i name="e_wo_entrp">    -11.37406895 </i>
    <i name="e_0_energy">    -11.37702767 </i>
   </energy>
  </scstep>
  <scstep>
   <time name="dav">   12.26   12.27</time>
   <time name="total">   13.30   13.31</time>
   <energy>
    <i name="e_fr_energy">    -11.37958220 </i>
    <i name="e_wo_entrp">    -11.37278051 </i>
    <i name="e_0_energy">    -11.37618135 </i>
   </energy>
  </scstep>
  <scstep>
   <time name="dav">   12.25   12.27</time>
   <time name="total">   13.31   13.33</time>
   <energy>
    <i name="e_fr_energy">    -11.37951141 </i>
    <i name="e_wo_entrp">    -11.37305866 </i>
    <i name="e_0_energy">    -11.37628503 </i>
   </energy>
  </scstep>
  <scstep>
   <time name="dav">   10.18   10.19</time>
   <time name="total">   11.22   11.24</time>
   <energy>
    <i name="e_fr_energy">    -11.37950139 </i>
    <i name="e_wo_entrp">    -11.37291457 </i>
    <i name="e_0_energy">    -11.37620798 </i>
   </energy>
  </scstep>
  <scstep>
   <time name="dav">    8.15    8.16</time>
   <time name="total">    9.19    9.20</time>
   <energy>
    <i name="e_fr_energy">    -11.37949989 </i>
    <i name="e_wo_entrp">    -11.37293975 </i>
    <i name="e_0_energy">    -11.37621982 </i>
   </energy>
  </scstep>
  <scstep>
   <time name="dav">    8.15    8.16</time>
   <time name="total">    8.26    8.27</time>
   <energy>
    <i name="alphaZ">    115.96428566 </i>
    <i name="ewald">   -328.26483725 </i>
    <i name="hartreedc">  -3538.32718047 </i>
    <i name="XCdc">     57.59944828 </i>
    <i name="pawpsdc">   3861.42817460 </i>
    <i name="pawaedc">  -3776.99291206 </i>
    <i name="eentropy">     -0.00653253 </i>
    <i name="bandstr">   -107.10383913 </i>
    <i name="atom">   3704.32389242 </i>
    <i name="e_fr_energy">    -11.37950049 </i>
    <i name="e_wo_entrp">    -11.37296796 </i>
    <i name="e_0_energy">    -11.37623422 </i>
   </energy>
  </scstep>
  <dipole>
   <v name="dipole">      0.00000000       0.00000000       0.00117442 </v>
   <i name="Tr[quadrupol]">    -29.57802629 </i>
   <i name="Echarged">      0.00000000 </i>
   <i name="Edipol_quadrupol">      0.00000000 </i>
   <i name="Eion">      0.00000000 </i>
  </dipole>
  <structure>
   <crystal>
    <varray name="basis" >
     <v>       2.89786501       0.00000000       0.00000000 </v>
     <v>       1.44893251       2.50962472       0.00000000 </v>
     <v>       0.00000000       0.00000000      22.09829062 </v>
    </varray>
    <i name="volume">    160.71100420 </i>
    <varray name="rec_basis" >
     <v>       0.34508164      -0.19923298       0.00000000 </v>
     <v>       0.00000000       0.39846595       0.00000000 </v>
     <v>       0.00000000       0.00000000       0.04525237 </v>
    </varray>
   </crystal>
   <varray name="positions" >
    <v>       0.00000000       0.00000000       0.50000000 </v>
    <v>       0.44891904       0.83652728       0.86600373 </v>
    <v>       0.00000367       0.67309190       0.23228665 </v>
    <v>       0.00000276       0.00000154       0.62500842 </v>
   </varray>
  </structure>
  <varray name="forces" >
   <v>       0.00024256       0.00014396      -0.27640886 </v>
   <v>      -0.00042178      -0.00071422      -0.06812686 </v>
   <v>       0.00028500       0.00052657       0.03666560 </v>
   <v>      -0.00010578       0.00004368       0.30787012 </v>
  </varray>
  <varray name="stress" >
   <v>     -84.50382282       0.01848033       0.00066505 </v>
   <v>       0.01848038     -84.46752239       0.01389541 </v>
   <v>       0.00066505       0.01389547      -0.75347598 </v>
  </varray>
  <energy>
   <i name="e_fr_energy">    -12.57006858 </i>
   <i name="e_wo_entrp">    -12.56680232 </i>
   <i name="e_0_energy">     -0.00653253 </i>
  </energy>
  <time name="totalsc">  274.90  275.29</time>
 </calculation>
 <calculation>
  <scstep>
   <time name="dav">   11.50   11.52</time>
   <time name="total">   12.56   12.57</time>
   <energy>
    <i name="alphaZ">    115.96428566 </i>
    <i name="ewald">   -357.57102893 </i>
    <i name="hartreedc">  -3509.26948732 </i>
    <i name="XCdc">     57.55433843 </i>
    <i name="pawpsdc">   3861.42691153 </i>
    <i name="pawaedc">  -3776.99164833 </i>
    <i name="eentropy">     -0.00476093 </i>
    <i name="bandstr">   -106.81927753 </i>
    <i name="atom">   3704.32389242 </i>
    <i name="e_fr_energy">    -11.38677499 </i>
    <i name="e_wo_entrp">    -11.38201407 </i>
    <i name="e_0_energy">    -11.38439453 </i>
   </energy>
  </scstep>
  <scstep>
   <time name="dav">   12.12   12.13</time>
   <time name="total">   13.16   13.17</time>
   <energy>
    <i name="e_fr_energy">    -11.41611084 </i>
    <i name="e_wo_entrp">    -11.41041505 </i>
    <i name="e_0_energy">    -11.41326294 </i>
   </energy>
  </scstep>
  <scstep>
   <time name="dav">   12.07   12.08</time>
   <time name="total">   13.12   13.14</time>
   <energy>
    <i name="e_fr_energy">    -11.39993602 </i>
    <i name="e_wo_entrp">    -11.39406197 </i>
    <i name="e_0_energy">    -11.39699900 </i>
   </energy>
  </scstep>
  <scstep>
   <time name="dav">   12.81   12.82</time>
   <time name="total">   13.84   13.86</time>
   <energy>
    <i name="e_fr_energy">    -11.39773747 </i>
    <i name="e_wo_entrp">    -11.39093247 </i>
    <i name="e_0_energy">    -11.39433497 </i>
   </energy>
  </scstep>
  <scstep>
   <time name="dav">   12.46   12.47</time>
   <time name="total">   13.56   13.58</time>
   <energy>
    <i name="e_fr_energy">    -11.39869617 </i>
    <i name="e_wo_entrp">    -11.39449854 </i>
    <i name="e_0_energy">    -11.39659736 </i>
   </energy>
  </scstep>
  <scstep>
   <time name="dav">   12.34   12.35</time>
   <time name="total">   13.41   13.43</time>
   <energy>
    <i name="e_fr_energy">    -11.39559026 </i>
    <i name="e_wo_entrp">    -11.38923244 </i>
    <i name="e_0_energy">    -11.39241135 </i>
   </energy>
  </scstep>
  <scstep>
   <time name="dav">   12.12   12.13</time>
   <time name="total">   13.18   13.19</time>
   <energy>
    <i name="e_fr_energy">    -11.39559605 </i>
    <i name="e_wo_entrp">    -11.38930738 </i>
    <i name="e_0_energy">    -11.39245172 </i>
   </energy>
  </scstep>
  <scstep>
   <time name="dav">   12.34   12.35</time>
   <time name="total">   13.42   13.45</time>
   <energy>
    <i name="e_fr_energy">    -11.39555540 </i>
    <i name="e_wo_entrp">    -11.38923563 </i>
    <i name="e_0_energy">    -11.39239552 </i>
   </energy>
  </scstep>
  <scstep>
   <time name="dav">   12.93   12.95</time>
   <time name="total">   14.06   14.08</time>
   <energy>
    <i name="e_fr_energy">    -11.39552503 </i>
    <i name="e_wo_entrp">    -11.38904522 </i>
    <i name="e_0_energy">    -11.39228513 </i>
   </energy>
  </scstep>
  <scstep>
   <time name="dav">   12.51   12.52</time>
   <time name="total">   13.52   13.54</time>
   <energy>
    <i name="e_fr_energy">    -11.39552075 </i>
    <i name="e_wo_entrp">    -11.38893641 </i>
    <i name="e_0_energy">    -11.39222858 </i>
   </energy>
  </scstep>
  <scstep>
   <time name="dav">    7.99    8.00</time>
   <time name="total">    8.10    8.12</time>
   <energy>
    <i name="alphaZ">    115.96428566 </i>
    <i name="ewald">   -357.57102893 </i>
    <i name="hartreedc">  -3509.71080652 </i>
    <i name="XCdc">     57.55735606 </i>
    <i name="pawpsdc">   3854.28079080 </i>
    <i name="pawaedc">  -3769.78636120 </i>
    <i name="eentropy">     -0.00655676 </i>
    <i name="bandstr">   -106.44709204 </i>
    <i name="atom">   3704.32389242 </i>
    <i name="e_fr_energy">    -11.39552050 </i>
    <i name="e_wo_entrp">    -11.38896374 </i>
    <i name="e_0_energy">    -11.39224212 </i>
   </energy>
  </scstep>
  <dipole>
   <v name="dipole">      0.00000000       0.00000000       0.00108421 </v>
   <i name="Tr[quadrupol]">    -29.61904873 </i>
   <i name="Echarged">      0.00000000 </i>
   <i name="Edipol_quadrupol">      0.00000000 </i>
   <i name="Eion">      0.00000000 </i>
  </dipole>
  <structure>
   <crystal>
    <varray name="basis" >
     <v>       2.89786501       0.00000000       0.00000000 </v>
     <v>       1.44893251       2.50962472       0.00000000 </v>
     <v>       0.00000000       0.00000000      22.09829062 </v>
    </varray>
    <i name="volume">    160.71100420 </i>
    <varray name="rec_basis" >
     <v>       0.34508164      -0.19923298       0.00000000 </v>
     <v>       0.00000000       0.39846595       0.00000000 </v>
     <v>       0.00000000       0.00000000       0.04525237 </v>
    </varray>
   </crystal>
   <varray name="positions" >
    <v>       0.00000000       0.00000000       0.50000000 </v>
    <v>       0.44891804       0.83652622       0.86599680 </v>
    <v>       0.00000394       0.67309256       0.23229356 </v>
    <v>       0.00000296       0.00000166       0.62699709 </v>
   </varray>
  </structure>
  <varray name="forces" >
   <v>       0.00026527       0.00017977      -0.10454045 </v>
   <v>      -0.00048526      -0.00081884      -0.06998284 </v>
   <v>       0.00030360       0.00055556       0.03740539 </v>
   <v>      -0.00008361       0.00008352       0.13711790 </v>
  </varray>
  <varray name="stress" >
   <v>     -85.32009310       0.01916421       0.00088270 </v>
   <v>       0.01916428     -85.28146713       0.01142328 </v>
   <v>       0.00088274       0.01142324      -5.42066595 </v>
  </varray>
  <energy>
   <i name="e_fr_energy">    -12.57970087 </i>
   <i name="e_wo_entrp">    -12.57642250 </i>
   <i name="e_0_energy">     -0.00655676 </i>
  </energy>
  <time name="totalsc">  160.10  160.38</time>
 </calculation>
 <calculation>
  <scstep>
   <time name="dav">   11.59   11.60</time>
   <time name="total">   12.63   12.65</time>
   <energy>
    <i name="alphaZ">    115.96428566 </i>
    <i name="ewald">   -382.48466858 </i>
    <i name="hartreedc">  -3484.98819195 </i>
    <i name="XCdc">     57.52081154 </i>
    <i name="pawpsdc">   3854.28733443 </i>
    <i name="pawaedc">  -3769.79289760 </i>
    <i name="eentropy">     -0.00501865 </i>
    <i name="bandstr">   -106.22265943 </i>
    <i name="atom">   3704.32389242 </i>
    <i name="e_fr_energy">    -11.39711216 </i>
    <i name="e_wo_entrp">    -11.39209351 </i>
    <i name="e_0_energy">    -11.39460284 </i>
   </energy>
  </scstep>
  <scstep>
   <time name="dav">   12.38   12.39</time>
   <time name="total">   13.42   13.44</time>
   <energy>
    <i name="e_fr_energy">    -11.42185115 </i>
    <i name="e_wo_entrp">    -11.41613495 </i>
    <i name="e_0_energy">    -11.41899305 </i>
   </energy>
  </scstep>
  <scstep>
   <time name="dav">   12.30   12.32</time>
   <time name="total">   13.34   13.36</time>
   <energy>
    <i name="e_fr_energy">    -11.40735361 </i>
    <i name="e_wo_entrp">    -11.40119504 </i>
    <i name="e_0_energy">    -11.40427432 </i>
   </energy>
  </scstep>
  <scstep>
   <time name="dav">   13.23   13.25</time>
   <time name="total">   14.36   14.38</time>
   <energy>
    <i name="e_fr_energy">    -11.40539711 </i>
    <i name="e_wo_entrp">    -11.39840783 </i>
    <i name="e_0_energy">    -11.40190247 </i>
   </energy>
  </scstep>
  <scstep>
   <time name="dav">   12.82   12.84</time>
   <time name="total">   13.89   13.91</time>
   <energy>
    <i name="e_fr_energy">    -11.40488398 </i>
    <i name="e_wo_entrp">    -11.39962516 </i>
    <i name="e_0_energy">    -11.40225457 </i>
   </energy>
  </scstep>
  <scstep>
   <time name="dav">   12.57   12.58</time>
   <time name="total">   13.62   13.64</time>
   <energy>
    <i name="e_fr_energy">    -11.40477179 </i>
    <i name="e_wo_entrp">    -11.39749848 </i>
    <i name="e_0_energy">    -11.40113514 </i>
   </energy>
  </scstep>
  <scstep>
   <time name="dav">   12.55   12.56</time>
   <time name="total">   13.64   13.66</time>
   <energy>
    <i name="e_fr_energy">    -11.40408980 </i>
    <i name="e_wo_entrp">    -11.39803492 </i>
    <i name="e_0_energy">    -11.40106236 </i>
   </energy>
  </scstep>
  <scstep>
   <time name="dav">   11.88   11.89</time>
   <time name="total">   12.94   12.95</time>
   <energy>
    <i name="e_fr_energy">    -11.40393925 </i>
    <i name="e_wo_entrp">    -11.39748496 </i>
    <i name="e_0_energy">    -11.40071210 </i>
   </energy>
  </scstep>
  <scstep>
   <time name="dav">   12.66   12.67</time>
   <time name="total">   13.71   13.73</time>
   <energy>
    <i name="e_fr_energy">    -11.40392831 </i>
    <i name="e_wo_entrp">    -11.39738656 </i>
    <i name="e_0_energy">    -11.40065744 </i>
   </energy>
  </scstep>
  <scstep>
   <time name="dav">   10.58   10.59</time>
   <time name="total">   11.62   11.63</time>
   <energy>
[...]
       <r>     5.2281     1.1045    24.8158 </r>
       <r>     5.2900     1.1573    24.8874 </r>
       <r>     5.3519     0.5955    24.9243 </r>
       <r>     5.4138     0.6339    24.9635 </r>
       <r>     5.4757     0.9567    25.0227 </r>
       <r>     5.5377     0.6179    25.0610 </r>
       <r>     5.5996     0.7490    25.1074 </r>
       <r>     5.6615     0.7290    25.1525 </r>
       <r>     5.7234     1.3111    25.2337 </r>
       <r>     5.7853     1.3333    25.3162 </r>
       <r>     5.8472     1.0820    25.3832 </r>
       <r>     5.9091     0.7764    25.4313 </r>
       <r>     5.9710     0.7051    25.4749 </r>
       <r>     6.0329     1.1127    25.5438 </r>
       <r>     6.0948     1.2917    25.6238 </r>
       <r>     6.1568     1.1723    25.6964 </r>
       <r>     6.2187     1.2416    25.7732 </r>
       <r>     6.2806     1.1238    25.8428 </r>
       <r>     6.3425     0.5699    25.8781 </r>
       <r>     6.4044     0.8347    25.9298 </r>
       <r>     6.4663     0.9039    25.9857 </r>
       <r>     6.5282     0.5807    26.0217 </r>
       <r>     6.5901     0.8847    26.0764 </r>
       <r>     6.6520     1.2779    26.1556 </r>
       <r>     6.7139     0.8381    26.2074 </r>
       <r>     6.7759     0.9168    26.2642 </r>
       <r>     6.8378     1.1943    26.3381 </r>
       <r>     6.8997     1.0908    26.4057 </r>
       <r>     6.9616     0.6753    26.4475 </r>
       <r>     7.0235     1.1123    26.5163 </r>
       <r>     7.0854     1.2965    26.5966 </r>
       <r>     7.1473     1.2360    26.6731 </r>
       <r>     7.2092     1.4676    26.7640 </r>
       <r>     7.2711     1.0550    26.8293 </r>
       <r>     7.3330     0.7934    26.8784 </r>
       <r>     7.3950     0.9204    26.9354 </r>
       <r>     7.4569     0.8574    26.9885 </r>
       <r>     7.5188     0.3476    27.0100 </r>
       <r>     7.5807     0.6890    27.0527 </r>
       <r>     7.6426     1.1280    27.1225 </r>
       <r>     7.7045     0.9955    27.1841 </r>
       <r>     7.7664     0.8960    27.2396 </r>
       <r>     7.8283     1.0395    27.3040 </r>
       <r>     7.8902     0.8396    27.3559 </r>
       <r>     7.9521     0.4786    27.3856 </r>
       <r>     8.0141     0.3159    27.4051 </r>
       <r>     8.0760     0.8790    27.4595 </r>
       <r>     8.1379     1.1477    27.5306 </r>
       <r>     8.1998     0.8889    27.5856 </r>
       <r>     8.2617     0.9737    27.6459 </r>
       <r>     8.3236     0.7555    27.6927 </r>
       <r>     8.3855     0.5606    27.7274 </r>
       <r>     8.4474     0.5061    27.7587 </r>
       <r>     8.5093     0.5568    27.7932 </r>
       <r>     8.5712     0.5227    27.8256 </r>
       <r>     8.6332     0.4250    27.8519 </r>
       <r>     8.6951     0.5579    27.8864 </r>
       <r>     8.7570     0.4202    27.9124 </r>
       <r>     8.8189     0.1723    27.9231 </r>
       <r>     8.8808     0.4080    27.9484 </r>
       <r>     8.9427     0.3040    27.9672 </r>
       <r>     9.0046     0.1365    27.9756 </r>
       <r>     9.0665     0.0349    27.9778 </r>
       <r>     9.1284     0.0049    27.9781 </r>
       <r>     9.1904     0.0568    27.9816 </r>
       <r>     9.2523     0.1598    27.9915 </r>
       <r>     9.3142     0.1217    27.9990 </r>
       <r>     9.3761     0.0154    28.0000 </r>
       <r>     9.4380     0.0002    28.0000 </r>
       <r>     9.4999     0.0000    28.0000 </r>
       <r>     9.5618     0.0000    28.0000 </r>
       <r>     9.6237     0.0000    28.0000 </r>
       <r>     9.6856     0.0000    28.0000 </r>
       <r>     9.7475     0.0000    28.0000 </r>
       <r>     9.8095     0.0000    28.0000 </r>
       <r>     9.8714     0.0000    28.0000 </r>
       <r>     9.9333     0.0000    28.0000 </r>
       <r>     9.9952     0.0000    28.0000 </r>
       <r>    10.0571     0.0000    28.0000 </r>
       <r>    10.1190     0.0000    28.0000 </r>
      </set>
      <set comment="spin 2">
       <r>    -8.4540     0.0000     0.0000 </r>
       <r>    -8.3921     0.0000     0.0000 </r>
       <r>    -8.3302     0.0000     0.0000 </r>
       <r>    -8.2683     0.0000     0.0000 </r>
       <r>    -8.2064     0.0000     0.0000 </r>
       <r>    -8.1445     0.0000     0.0000 </r>
       <r>    -8.0825     0.0000     0.0000 </r>
       <r>    -8.0206     0.0000     0.0000 </r>
       <r>    -7.9587     0.0000     0.0000 </r>
       <r>    -7.8968     0.0000     0.0000 </r>
       <r>    -7.8349     0.0000     0.0000 </r>
       <r>    -7.7730     0.0000     0.0000 </r>
       <r>    -7.7111     0.0001     0.0000 </r>
       <r>    -7.6492     0.0059     0.0004 </r>
       <r>    -7.5873     0.0374     0.0027 </r>
       <r>    -7.5254     0.1336     0.0110 </r>
       <r>    -7.4634     0.1255     0.0187 </r>
       <r>    -7.4015     0.0398     0.0212 </r>
       <r>    -7.3396     0.1678     0.0316 </r>
       <r>    -7.2777     0.1980     0.0438 </r>
       <r>    -7.2158     0.1302     0.0519 </r>
       <r>    -7.1539     0.0120     0.0526 </r>
       <r>    -7.0920     0.0317     0.0546 </r>
       <r>    -7.0301     0.2754     0.0717 </r>
       <r>    -6.9682     0.2179     0.0851 </r>
       <r>    -6.9063     0.0871     0.0905 </r>
       <r>    -6.8443     0.1689     0.1010 </r>
       <r>    -6.7824     0.0791     0.1059 </r>
       <r>    -6.7205     0.1627     0.1160 </r>
       <r>    -6.6586     0.2407     0.1309 </r>
       <r>    -6.5967     0.4005     0.1557 </r>
       <r>    -6.5348     0.4581     0.1840 </r>
       <r>    -6.4729     0.2348     0.1986 </r>
       <r>    -6.4110     0.2008     0.2110 </r>
       <r>    -6.3491     0.1496     0.2203 </r>
       <r>    -6.2872     0.0845     0.2255 </r>
       <r>    -6.2252     0.3790     0.2489 </r>
       <r>    -6.1633     0.4891     0.2792 </r>
       <r>    -6.1014     0.4777     0.3088 </r>
       <r>    -6.0395     0.4124     0.3343 </r>
       <r>    -5.9776     0.0903     0.3399 </r>
       <r>    -5.9157     0.2123     0.3531 </r>
       <r>    -5.8538     0.5477     0.3870 </r>
       <r>    -5.7919     0.4840     0.4169 </r>
       <r>    -5.7300     0.3907     0.4411 </r>
       <r>    -5.6681     0.9612     0.5006 </r>
       <r>    -5.6061     0.9406     0.5589 </r>
       <r>    -5.5442     0.4114     0.5843 </r>
       <r>    -5.4823     0.3030     0.6031 </r>
       <r>    -5.4204     1.0796     0.6699 </r>
       <r>    -5.3585     1.7010     0.7752 </r>
       <r>    -5.2966     1.7160     0.8815 </r>
       <r>    -5.2347     1.4416     0.9707 </r>
       <r>    -5.1728     0.9613     1.0302 </r>
       <r>    -5.1109     1.8225     1.1431 </r>
       <r>    -5.0490     2.6369     1.3063 </r>
       <r>    -4.9870     2.5650     1.4651 </r>
       <r>    -4.9251     2.8047     1.6388 </r>
       <r>    -4.8632     3.6056     1.8620 </r>
       <r>    -4.8013     3.1049     2.0542 </r>
       <r>    -4.7394     3.2712     2.2567 </r>
       <r>    -4.6775     3.9772     2.5030 </r>
       <r>    -4.6156     3.9652     2.7485 </r>
       <r>    -4.5537     3.8606     2.9875 </r>
       <r>    -4.4918     4.2757     3.2522 </r>
       <r>    -4.4299     4.7030     3.5433 </r>
       <r>    -4.3679     4.5660     3.8260 </r>
       <r>    -4.3060     4.0190     4.0748 </r>
       <r>    -4.2441     3.8864     4.3154 </r>
       <r>    -4.1822     4.2900     4.5810 </r>
       <r>    -4.1203     3.8366     4.8185 </r>
       <r>    -4.0584     3.5023     5.0354 </r>
       <r>    -3.9965     3.4236     5.2473 </r>
       <r>    -3.9346     4.0772     5.4997 </r>
       <r>    -3.8727     4.4670     5.7763 </r>
       <r>    -3.8108     4.3103     6.0431 </r>
       <r>    -3.7488     4.3421     6.3120 </r>
       <r>    -3.6869     4.9193     6.6165 </r>
       <r>    -3.6250     4.9667     6.9240 </r>
       <r>    -3.5631     5.5684     7.2688 </r>
       <r>    -3.5012     4.1609     7.5264 </r>
       <r>    -3.4393     2.9007     7.7059 </r>
       <r>    -3.3774     3.1753     7.9025 </r>
       <r>    -3.3155     3.0233     8.0897 </r>
       <r>    -3.2536     3.0710     8.2798 </r>
       <r>    -3.1917     3.9488     8.5243 </r>
       <r>    -3.1297     4.2768     8.7891 </r>
       <r>    -3.0678     4.0907     9.0423 </r>
       <r>    -3.0059     4.1971     9.3022 </r>
       <r>    -2.9440     4.1965     9.5620 </r>
       <r>    -2.8821     4.2613     9.8258 </r>
       <r>    -2.8202     4.5210    10.1057 </r>
       <r>    -2.7583     4.7049    10.3970 </r>
       <r>    -2.6964     5.5110    10.7381 </r>
       <r>    -2.6345     5.2078    11.0606 </r>
       <r>    -2.5726     4.9267    11.3656 </r>
       <r>    -2.5106     5.5211    11.7074 </r>
       <r>    -2.4487     5.2498    12.0324 </r>
       <r>    -2.3868     4.5220    12.3124 </r>
       <r>    -2.3249     4.2350    12.5745 </r>
       <r>    -2.2630     4.7820    12.8706 </r>
       <r>    -2.2011     5.0938    13.1860 </r>
       <r>    -2.1392     5.1756    13.5064 </r>
       <r>    -2.0773     5.1586    13.8257 </r>
       <r>    -2.0154     5.0737    14.1399 </r>
       <r>    -1.9535     5.5007    14.4804 </r>
       <r>    -1.8915     5.0693    14.7942 </r>
       <r>    -1.8296     5.7544    15.1505 </r>
       <r>    -1.7677     5.9689    15.5200 </r>
       <r>    -1.7058     5.5747    15.8652 </r>
       <r>    -1.6439     7.2360    16.3132 </r>
       <r>    -1.5820     7.2332    16.7610 </r>
       <r>    -1.5201     5.5812    17.1065 </r>
       <r>    -1.4582     4.4274    17.3806 </r>
       <r>    -1.3963     3.6401    17.6060 </r>
       <r>    -1.3344     4.0984    17.8597 </r>
       <r>    -1.2724     5.1537    18.1787 </r>
       <r>    -1.2105     6.2931    18.5684 </r>
       <r>    -1.1486     7.0151    19.0027 </r>
       <r>    -1.0867     6.3032    19.3929 </r>
       <r>    -1.0248     4.8709    19.6944 </r>
       <r>    -0.9629     3.5839    19.9163 </r>
       <r>    -0.9010     2.8698    20.0940 </r>
       <r>    -0.8391     2.6018    20.2551 </r>
       <r>    -0.7772     3.1177    20.4481 </r>
       <r>    -0.7153     2.9457    20.6305 </r>
       <r>    -0.6533     3.3109    20.8354 </r>
       <r>    -0.5914     3.2245    21.0351 </r>
       <r>    -0.5295     2.0221    21.1603 </r>
       <r>    -0.4676     0.9854    21.2213 </r>
       <r>    -0.4057     0.5076    21.2527 </r>
       <r>    -0.3438     0.4466    21.2803 </r>
       <r>    -0.2819     0.4392    21.3075 </r>
       <r>    -0.2200     0.4319    21.3343 </r>
       <r>    -0.1581     0.5566    21.3687 </r>
       <r>    -0.0962     0.6311    21.4078 </r>
       <r>    -0.0342     0.3856    21.4317 </r>
       <r>     0.0277     0.2487    21.4471 </r>
       <r>     0.0896     0.7221    21.4918 </r>
       <r>     0.1515     1.1924    21.5656 </r>
       <r>     0.2134     1.2100    21.6405 </r>
       <r>     0.2753     0.5372    21.6738 </r>
       <r>     0.3372     0.2264    21.6878 </r>
       <r>     0.3991     0.3103    21.7070 </r>
       <r>     0.4610     0.2953    21.7253 </r>
       <r>     0.5229     0.2485    21.7407 </r>
       <r>     0.5849     0.3476    21.7622 </r>
       <r>     0.6468     0.6195    21.8005 </r>
       <r>     0.7087     1.0344    21.8646 </r>
       <r>     0.7706     0.8733    21.9186 </r>
       <r>     0.8325     0.2578    21.9346 </r>
       <r>     0.8944     0.1789    21.9457 </r>
       <r>     0.9563     0.4858    21.9757 </r>
       <r>     1.0182     0.8830    22.0304 </r>
       <r>     1.0801     1.1875    22.1039 </r>
       <r>     1.1420     1.4608    22.1944 </r>
       <r>     1.2040     0.7300    22.2396 </r>
       <r>     1.2659     0.6592    22.2804 </r>
       <r>     1.3278     0.5593    22.3150 </r>
       <r>     1.3897     0.3359    22.3358 </r>
       <r>     1.4516     0.2433    22.3509 </r>
       <r>     1.5135     0.3838    22.3746 </r>
       <r>     1.5754     0.5750    22.4102 </r>
       <r>     1.6373     0.9111    22.4666 </r>
       <r>     1.6992     1.1788    22.5396 </r>
       <r>     1.7611     0.8369    22.5914 </r>
       <r>     1.8231     0.3578    22.6136 </r>
       <r>     1.8850     0.2117    22.6267 </r>
       <r>     1.9469     0.1629    22.6368 </r>
       <r>     2.0088     0.9035    22.6927 </r>
       <r>     2.0707     1.2549    22.7704 </r>
       <r>     2.1326     0.8777    22.8247 </r>
       <r>     2.1945     0.8940    22.8801 </r>
       <r>     2.2564     1.1374    22.9505 </r>
       <r>     2.3183     0.9003    23.0062 </r>
       <r>     2.3802     0.6061    23.0438 </r>
       <r>     2.4422     0.2306    23.0580 </r>
       <r>     2.5041     0.1279    23.0659 </r>
       <r>     2.5660     0.3480    23.0875 </r>
       <r>     2.6279     0.6229    23.1261 </r>
       <r>     2.6898     0.6462    23.1661 </r>
       <r>     2.7517     0.5446    23.1998 </r>
       <r>     2.8136     0.3092    23.2189 </r>
       <r>     2.8755     0.5512    23.2530 </r>
       <r>     2.9374     0.7387    23.2988 </r>
       <r>     2.9993     0.3766    23.3221 </r>
       <r>     3.0613     0.5024    23.3532 </r>
       <r>     3.1232     1.1171    23.4224 </r>
       <r>     3.1851     1.1079    23.4909 </r>
       <r>     3.2470     0.4782    23.5205 </r>
       <r>     3.3089     0.8115    23.5708 </r>
       <r>     3.3708     0.5747    23.6064 </r>
       <r>     3.4327     0.4519    23.6343 </r>
       <r>     3.4946     0.4039    23.6594 </r>
       <r>     3.5565     0.3447    23.6807 </r>
       <r>     3.6184     0.5833    23.7168 </r>
       <r>     3.6804     0.8192    23.7675 </r>
       <r>     3.7423     0.9710    23.8276 </r>
       <r>     3.8042     0.8839    23.8824 </r>
       <r>     3.8661     0.6720    23.9240 </r>
       <r>     3.9280     0.8461    23.9763 </r>
       <r>     3.9899     0.7398    24.0221 </r>
       <r>     4.0518     0.6296    24.0611 </r>
       <r>     4.1137     0.3755    24.0844 </r>
       <r>     4.1756     0.3589    24.1066 </r>
       <r>     4.2375     0.6415    24.1463 </r>
       <r>     4.2995     0.7001    24.1896 </r>
       <r>     4.3614     0.7459    24.2358 </r>
       <r>     4.4233     0.6397    24.2754 </r>
       <r>     4.4852     0.4884    24.3057 </r>
       <r>     4.5471     0.4566    24.3339 </r>
       <r>     4.6090     0.3199    24.3537 </r>
       <r>     4.6709     0.3352    24.3745 </r>
       <r>     4.7328     0.4437    24.4020 </r>
       <r>     4.7947     0.7076    24.4458 </r>
       <r>     4.8566     0.7959    24.4950 </r>
       <r>     4.9186     0.9106    24.5514 </r>
       <r>     4.9805     0.4830    24.5813 </r>
       <r>     5.0424     0.7086    24.6252 </r>
       <r>     5.1043     0.9826    24.6860 </r>
       <r>     5.1662     0.9911    24.7474 </r>
       <r>     5.2281     1.1045    24.8158 </r>
       <r>     5.2900     1.1573    24.8874 </r>
       <r>     5.3519     0.5955    24.9243 </r>
       <r>     5.4138     0.6339    24.9635 </r>
       <r>     5.4757     0.9567    25.0227 </r>
       <r>     5.5377     0.6179    25.0610 </r>
       <r>     5.5996     0.7490    25.1074 </r>
       <r>     5.6615     0.7290    25.1525 </r>
       <r>     5.7234     1.3111    25.2337 </r>
       <r>     5.7853     1.3333    25.3162 </r>
       <r>     5.8472     1.0820    25.3832 </r>
       <r>     5.9091     0.7764    25.4313 </r>
       <r>     5.9710     0.7051    25.4749 </r>
       <r>     6.0329     1.1127    25.5438 </r>
       <r>     6.0948     1.2917    25.6238 </r>
       <r>     6.1568     1.1723    25.6964 </r>
       <r>     6.2187     1.2416    25.7732 </r>
       <r>     6.2806     1.1238    25.8428 </r>
       <r>     6.3425     0.5699    25.8781 </r>
       <r>     6.4044     0.8347    25.9298 </r>
       <r>     6.4663     0.9039    25.9857 </r>
       <r>     6.5282     0.5807    26.0217 </r>
       <r>     6.5901     0.8847    26.0764 </r>
       <r>     6.6520     1.2779    26.1556 </r>
       <r>     6.7139     0.8381    26.2074 </r>
       <r>     6.7759     0.9168    26.2642 </r>
       <r>     6.8378     1.1943    26.3381 </r>
       <r>     6.8997     1.0908    26.4057 </r>
       <r>     6.9616     0.6753    26.4475 </r>
       <r>     7.0235     1.1123    26.5163 </r>
       <r>     7.0854     1.2965    26.5966 </r>
       <r>     7.1473     1.2360    26.6731 </r>
       <r>     7.2092     1.4676    26.7640 </r>
       <r>     7.2711     1.0550    26.8293 </r>
       <r>     7.3330     0.7934    26.8784 </r>
       <r>     7.3950     0.9204    26.9354 </r>
       <r>     7.4569     0.8574    26.9885 </r>
       <r>     7.5188     0.3476    27.0100 </r>
       <r>     7.5807     0.6890    27.0527 </r>
       <r>     7.6426     1.1280    27.1225 </r>
       <r>     7.7045     0.9955    27.1841 </r>
       <r>     7.7664     0.8960    27.2396 </r>
       <r>     7.8283     1.0395    27.3040 </r>
       <r>     7.8902     0.8396    27.3559 </r>
       <r>     7.9521     0.4786    27.3856 </r>
       <r>     8.0141     0.3159    27.4051 </r>
       <r>     8.0760     0.8790    27.4595 </r>
       <r>     8.1379     1.1477    27.5306 </r>
       <r>     8.1998     0.8889    27.5856 </r>
       <r>     8.2617     0.9737    27.6459 </r>
       <r>     8.3236     0.7555    27.6927 </r>
       <r>     8.3855     0.5606    27.7274 </r>
       <r>     8.4474     0.5061    27.7587 </r>
       <r>     8.5093     0.5568    27.7932 </r>
       <r>     8.5712     0.5227    27.8256 </r>
       <r>     8.6332     0.4250    27.8519 </r>
       <r>     8.6951     0.5579    27.8864 </r>
       <r>     8.7570     0.4202    27.9124 </r>
       <r>     8.8189     0.1723    27.9231 </r>
       <r>     8.8808     0.4080    27.9484 </r>
       <r>     8.9427     0.3040    27.9672 </r>
       <r>     9.0046     0.1365    27.9756 </r>
       <r>     9.0665     0.0349    27.9778 </r>
       <r>     9.1284     0.0049    27.9781 </r>
       <r>     9.1904     0.0568    27.9816 </r>
       <r>     9.2523     0.1598    27.9915 </r>
       <r>     9.3142     0.1217    27.9990 </r>
       <r>     9.3761     0.0154    28.0000 </r>
       <r>     9.4380     0.0002    28.0000 </r>
       <r>     9.4999     0.0000    28.0000 </r>
       <r>     9.5618     0.0000    28.0000 </r>
       <r>     9.6237     0.0000    28.0000 </r>
       <r>     9.6856     0.0000    28.0000 </r>
       <r>     9.7475     0.0000    28.0000 </r>
       <r>     9.8095     0.0000    28.0000 </r>
       <r>     9.8714     0.0000    28.0000 </r>
       <r>     9.9333     0.0000    28.0000 </r>
       <r>     9.9952     0.0000    28.0000 </r>
       <r>    10.0571     0.0000    28.0000 </r>
       <r>    10.1190     0.0000    28.0000 </r>
      </set>
     </set>
    </array>
   </total>
  </dos>
 </calculation>
 <structure name="finalpos" >
  <crystal>
   <varray name="basis" >
    <v>       2.89786501       0.00000000       0.00000000 </v>
    <v>       1.44893251       2.50962472       0.00000000 </v>
    <v>       0.00000000       0.00000000      22.09829062 </v>
   </varray>
   <i name="volume">    160.71100420 </i>
   <varray name="rec_basis" >
    <v>       0.34508164      -0.19923298       0.00000000 </v>
    <v>       0.00000000       0.39846595       0.00000000 </v>
    <v>       0.00000000       0.00000000       0.04525237 </v>
   </varray>
  </crystal>
  <varray name="positions" >
   <v>       0.00000000       0.00000000       0.50000000 </v>
   <v>       0.69244731       0.67591022       0.73236870 </v>
   <v>       0.01972067       0.49072538       0.38586631 </v>
   <v>      -0.25664381       0.15755363       0.61843357 </v>
  </varray>
  <varray name="selective"  type="logical" >
   <v type="logical" >  F  F  F </v>
   <v type="logical" >  T  T  T </v>
   <v type="logical" >  T  T  T </v>
   <v type="logical" >  T  T  T </v>
  </varray>
  <nose>
   <v>      -3.00000000       0.00000000       0.00010000       0.00010000 </v>
  </nose>
 </structure>
</modeling>
