Slab Fe 1x1 4Layers                     
           1
     2.897865    0.000000    0.000000
     1.448933    2.509625    0.000000
     0.000000    0.000000   22.098291
   Au
   4
Direct configuration=     1
   0.00000000  0.00000000  0.50000000
   0.44893251  0.83654157  0.86609687
   0.00000000  0.67308314  0.23219375
   0.00000000  0.00000000  0.59829062
Direct configuration=     2
   0.00000000  0.00000000  0.50000000
   0.44892615  0.83653483  0.86605291
   0.00000173  0.67308728  0.23223760
   0.00000130  0.00000073  0.61090160
Direct configuration=     3
   0.00000000  0.00000000  0.50000000
   0.44892378  0.83653231  0.86603652
   0.00000238  0.67308882  0.23225395
   0.00000179  0.00000100  0.61560387
Direct configuration=     4
   0.00000000  0.00000000  0.50000000
   0.44891904  0.83652728  0.86600373
   0.00000367  0.67309190  0.23228665
   0.00000276  0.00000154  0.62500842
Direct configuration=     5
   0.00000000  0.00000000  0.50000000
   0.44891804  0.83652622  0.86599680
   0.00000394  0.67309256  0.23229356
   0.00000296  0.00000166  0.62699709
Direct configuration=     6
   0.00000000  0.00000000  0.50000000
   0.44891716  0.83652529  0.86599075
   0.00000418  0.67309313  0.23229960
   0.00000314  0.00000176  0.62873369
Direct configuration=     7
   0.00000000  0.00000000  0.50000000
   0.44891692  0.83652504  0.86598909
   0.00000424  0.67309328  0.23230125
   0.00000319  0.00000179  0.62920794
Direct configuration=     8
   0.00000000  0.00000000  0.50000000
   0.44891695  0.83652506  0.86598927
   0.00000424  0.67309326  0.23230107
   0.00000319  0.00000178  0.62915672
Direct configuration=     9
   0.00000000  0.00000000  0.50000000
   0.44891695  0.83652507  0.86598931
   0.00000423  0.67309326  0.23230104
   0.00000319  0.00000178  0.62914647
Direct configuration=    10
   0.00000000  0.00000000  0.50000000
   0.44891695  0.83652507  0.86598929
   0.00000424  0.67309326  0.23230105
   0.00000319  0.00000178  0.62915090
Direct configuration=    11
   0.00000000  0.00000000  0.50000000
   0.44891695  0.83652507  0.86598930
   0.00000423  0.67309326  0.23230104
   0.00000319  0.00000178  0.62914718
Direct configuration=    12
   0.00000000  0.00000000  0.50000000
   0.44891695  0.83652507  0.86598930
   0.00000424  0.67309326  0.23230104
   0.00000319  0.00000178  0.62914904
Direct configuration=    13
   0.00000000  0.00000000  0.50000000
   0.44891691  0.83651529  0.86588450
   0.00000404  0.67309893  0.23235221
   0.00000169  0.00000328  0.62914933
Direct configuration=    14
   0.00000000  0.00000000  0.50000000
   0.44891679  0.83648595  0.86557011
   0.00000346  0.67311594  0.23250571
  -0.00000278  0.00000775  0.62915021
Direct configuration=    15
   0.00000000  0.00000000  0.50000000
   0.44891655  0.83642727  0.86494132
   0.00000230  0.67314997  0.23281270
  -0.00001173  0.00001670  0.62915197
Direct configuration=    16
   0.00000000  0.00000000  0.50000000
   0.44891607  0.83630991  0.86368375
  -0.00000003  0.67321801  0.23342669
  -0.00002963  0.00003460  0.62915549
Direct configuration=    17
   0.00000000  0.00000000  0.50000000
   0.44891511  0.83607519  0.86116862
  -0.00000468  0.67335410  0.23465466
  -0.00006542  0.00007041  0.62916252
Direct configuration=    18
   0.00000000  0.00000000  0.50000000
   0.44891318  0.83560575  0.85613834
  -0.00001399  0.67362628  0.23711061
  -0.00013701  0.00014202  0.62917659
Direct configuration=    19
   0.00000000  0.00000000  0.50000000
   0.44890933  0.83466687  0.84607779
  -0.00003260  0.67417063  0.24202251
  -0.00028020  0.00028523  0.62920473
Direct configuration=    20
   0.00000000  0.00000000  0.50000000
   0.44890164  0.83278911  0.82595668
  -0.00006983  0.67525934  0.25184631
  -0.00056656  0.00057167  0.62926100
Direct configuration=    21
   0.00000000  0.00000000  0.50000000
   0.44888624  0.82903359  0.78571447
  -0.00014428  0.67743676  0.27149391
  -0.00113929  0.00114454  0.62937355
Direct configuration=    22
   0.00000000  0.00000000  0.50000000
   0.44885545  0.82152256  0.70523005
  -0.00029318  0.68179160  0.31078911
  -0.00228475  0.00229028  0.62959865
Direct configuration=    23
   0.00000000  0.00000000  0.50000000
   0.44888553  0.82885970  0.78385110
  -0.00014773  0.67753758  0.27240367
  -0.00116581  0.00117106  0.62937876
Direct configuration=    24
   0.00000000  0.00000000  0.50000000
   0.44887049  0.82519113  0.74454057
  -0.00022045  0.67966459  0.29159639
  -0.00172528  0.00173067  0.62948871
Direct configuration=    25
   0.00000000  0.00000000  0.50000000
   0.44887150  0.82543778  0.74718350
  -0.00021556  0.67952159  0.29030602
  -0.00168767  0.00169305  0.62948131
Direct configuration=    26
   0.00000000  0.00000000  0.50000000
   0.44887079  0.82526655  0.74534875
  -0.00021896  0.67962086  0.29120181
  -0.00171378  0.00171917  0.62948645
Direct configuration=    27
   0.00000000  0.00000000  0.50000000
   0.44906765  0.82516553  0.74459607
  -0.00022029  0.67965889  0.29163368
  -0.00190686  0.00175479  0.62934563
Direct configuration=    28
   0.00000000  0.00000000  0.50000000
   0.44944504  0.82497186  0.74315304
  -0.00022284  0.67973180  0.29246165
  -0.00227702  0.00182308  0.62907567
Direct configuration=    29
   0.00000000  0.00000000  0.50000000
   0.45019984  0.82458451  0.74026698
  -0.00022795  0.67987763  0.29411759
  -0.00301735  0.00195966  0.62853573
Direct configuration=    30
   0.00000000  0.00000000  0.50000000
   0.44965080  0.82486626  0.74236629
  -0.00022424  0.67977156  0.29291306
  -0.00247884  0.00186031  0.62892848
Direct configuration=    31
   0.00000000  0.00000000  0.50000000
   0.45038864  0.82461734  0.74182442
  -0.00022124  0.67980160  0.29337351
  -0.00319163  0.00204484  0.62850434
Direct configuration=    32
   0.00000000  0.00000000  0.50000000
   0.45260214  0.82387055  0.74019880
  -0.00021227  0.67989173  0.29475486
  -0.00533003  0.00259841  0.62723193
Direct configuration=    33
   0.00000000  0.00000000  0.50000000
   0.45702915  0.82237698  0.73694757
  -0.00019431  0.68007200  0.29751756
  -0.00960683  0.00370555  0.62468709
Direct configuration=    34
   0.00000000  0.00000000  0.50000000
   0.46588316  0.81938983  0.73044509
  -0.00015841  0.68043253  0.30304297
  -0.01816041  0.00591983  0.61959743
Direct configuration=    35
   0.00000000  0.00000000  0.50000000
   0.46235784  0.82057920  0.73303412
  -0.00017270  0.68028898  0.30084297
  -0.01475472  0.00503819  0.62162393
Direct configuration=    36
   0.00000000  0.00000000  0.50000000
   0.46530558  0.81963086  0.73356012
  -0.00017702  0.68030404  0.30131648
  -0.01766754  0.00594988  0.62151377
Direct configuration=    37
   0.00000000  0.00000000  0.50000000
   0.47414877  0.81678586  0.73513813
  -0.00018996  0.68034919  0.30273701
  -0.02640603  0.00868496  0.62118327
Direct configuration=    38
   0.00000000  0.00000000  0.50000000
   0.49183516  0.81109587  0.73829414
  -0.00021583  0.68043951  0.30557805
  -0.04388300  0.01415511  0.62052227
Direct configuration=    39
   0.00000000  0.00000000  0.50000000
   0.48462214  0.81341641  0.73700703
  -0.00020528  0.68040268  0.30441939
  -0.03675539  0.01192423  0.62079185
Direct configuration=    40
   0.00000000  0.00000000  0.50000000
   0.48688251  0.81281302  0.73727158
  -0.00020725  0.68041911  0.30493106
  -0.03910191  0.01252903  0.62107135
Direct configuration=    41
   0.00000000  0.00000000  0.50000000
   0.49366360  0.81100283  0.73806523
  -0.00021315  0.68046841  0.30646606
  -0.04614147  0.01434342  0.62190985
Direct configuration=    42
   0.00000000  0.00000000  0.50000000
   0.50722580  0.80738245  0.73965252
  -0.00022496  0.68056701  0.30953607
  -0.06022058  0.01797222  0.62358686
Direct configuration=    43
   0.00000000  0.00000000  0.50000000
   0.53435018  0.80014170  0.74282711
  -0.00024859  0.68076420  0.31567609
  -0.08837881  0.02522982  0.62694088
Direct configuration=    44
   0.00000000  0.00000000  0.50000000
   0.58859895  0.78566020  0.74917629
  -0.00029583  0.68115860  0.32795612
  -0.14469526  0.03974501  0.63364892
Direct configuration=    45
   0.00000000  0.00000000  0.50000000
   0.69709649  0.75669719  0.76187465
  -0.00039031  0.68194738  0.35251619
  -0.25732817  0.06877539  0.64706499
Direct configuration=    46
   0.00000000  0.00000000  0.50000000
   0.70343629  0.75455908  0.76278531
  -0.00039524  0.68195866  0.35408590
  -0.26391602  0.07091980  0.64752767
Direct configuration=    47
   0.00000000  0.00000000  0.50000000
   0.72245568  0.74814473  0.76551731
  -0.00041004  0.68199249  0.35879505
  -0.28367958  0.07735301  0.64891569
Direct configuration=    48
   0.00000000  0.00000000  0.50000000
   0.76049446  0.73531602  0.77098131
  -0.00043963  0.68206014  0.36821333
  -0.32320670  0.09021943  0.65169175
Direct configuration=    49
   0.00000000  0.00000000  0.50000000
   0.83657203  0.70965862  0.78190930
  -0.00049882  0.68219545  0.38704991
  -0.40226093  0.11595227  0.65724387
Direct configuration=    50
   0.00000000  0.00000000  0.50000000
   0.77353249  0.73091891  0.77285412
  -0.00044978  0.68208333  0.37144151
  -0.33675486  0.09462947  0.65264326
Direct configuration=    51
   0.00000000  0.00000000  0.50000000
   0.78905303  0.72568456  0.77508354
  -0.00046185  0.68211093  0.37528435
  -0.35288266  0.09987921  0.65377595
Direct configuration=    52
   0.00000000  0.00000000  0.50000000
   0.78571251  0.72681116  0.77460370
  -0.00045925  0.68210499  0.37445725
  -0.34941145  0.09874930  0.65353216
Direct configuration=    53
   0.00000000  0.00000000  0.50000000
   0.78066015  0.72810650  0.77398782
  -0.00044960  0.68195716  0.37333137
  -0.34417404  0.09745582  0.65249895
Direct configuration=    54
   0.00000000  0.00000000  0.50000000
   0.76619053  0.73181626  0.77222399
  -0.00042198  0.68153377  0.37010693
  -0.32917447  0.09375137  0.64953990
Direct configuration=    55
   0.00000000  0.00000000  0.50000000
   0.73725129  0.73923579  0.76869634
  -0.00036673  0.68068700  0.36365805
  -0.29917532  0.08634249  0.64362180
Direct configuration=    56
   0.00000000  0.00000000  0.50000000
   0.73504968  0.73961883  0.76801113
  -0.00034340  0.68082496  0.36439065
  -0.29684597  0.08589651  0.64212556
Direct configuration=    57
   0.00000000  0.00000000  0.50000000
   0.72844485  0.74076798  0.76595550
  -0.00027342  0.68123883  0.36658846
  -0.28985790  0.08455857  0.63763683
Direct configuration=    58
   0.00000000  0.00000000  0.50000000
   0.71523519  0.74306626  0.76184423
  -0.00013347  0.68206658  0.37098408
  -0.27588176  0.08188269  0.62865937
Direct configuration=    59
   0.00000000  0.00000000  0.50000000
   0.68881587  0.74766283  0.75362170
   0.00014643  0.68372206  0.37977533
  -0.24792948  0.07653093  0.61070444
Direct configuration=    60
   0.00000000  0.00000000  0.50000000
   0.71076444  0.74384411  0.76045279
  -0.00008610  0.68234672  0.37247176
  -0.27115159  0.08097705  0.62562098
Direct configuration=    61
   0.00000000  0.00000000  0.50000000
   0.69979015  0.74575347  0.75703725
   0.00003017  0.68303439  0.37612355
  -0.25954054  0.07875399  0.61816271
Direct configuration=    62
   0.00000000  0.00000000  0.50000000
   0.70556355  0.74474898  0.75883411
  -0.00003100  0.68267262  0.37420240
  -0.26564893  0.07992350  0.62208639
Direct configuration=    63
   0.00000000  0.00000000  0.50000000
   0.70228639  0.74582877  0.75597506
   0.00008879  0.68322288  0.37656706
  -0.26222394  0.07858785  0.62100915
Direct configuration=    64
   0.00000000  0.00000000  0.50000000
   0.69245490  0.74906815  0.74739791
   0.00044815  0.68487366  0.38366106
  -0.25194897  0.07458089  0.61777741
Direct configuration=    65
   0.00000000  0.00000000  0.50000000
   0.69002102  0.75118215  0.74228545
   0.00104291  0.67953908  0.38461935
  -0.25151923  0.07284554  0.62030052
Direct configuration=    66
   0.00000000  0.00000000  0.50000000
   0.68879384  0.75224804  0.73970773
   0.00134279  0.67684936  0.38510252
  -0.25130256  0.07197058  0.62157269
Direct configuration=    67
   0.00000000  0.00000000  0.50000000
   0.68926197  0.75184143  0.74069106
   0.00122839  0.67787541  0.38491821
  -0.25138521  0.07230435  0.62108740
Direct configuration=    68
   0.00000000  0.00000000  0.50000000
   0.68878020  0.75046652  0.73885079
   0.00182341  0.66879490  0.38312833
  -0.24955507  0.07303479  0.62075387
Direct configuration=    69
   0.00000000  0.00000000  0.50000000
   0.68878019  0.75046651  0.73885078
   0.00182341  0.66879481  0.38312832
  -0.24955506  0.07303480  0.62075386
Direct configuration=    70
   0.00000000  0.00000000  0.50000000
   0.68878018  0.75046648  0.73885074
   0.00182343  0.66879464  0.38312828
  -0.24955502  0.07303482  0.62075386
Direct configuration=    71
   0.00000000  0.00000000  0.50000000
   0.68878016  0.75046643  0.73885067
   0.00182345  0.66879429  0.38312821
  -0.24955495  0.07303484  0.62075384
Direct configuration=    72
   0.00000000  0.00000000  0.50000000
   0.68878013  0.75046632  0.73885053
   0.00182349  0.66879358  0.38312808
  -0.24955481  0.07303490  0.62075382
Direct configuration=    73
   0.00000000  0.00000000  0.50000000
   0.68878005  0.75046611  0.73885024
   0.00182359  0.66879218  0.38312780
  -0.24955452  0.07303501  0.62075377
Direct configuration=    74
   0.00000000  0.00000000  0.50000000
   0.68877990  0.75046568  0.73884967
   0.00182377  0.66878937  0.38312724
  -0.24955396  0.07303524  0.62075366
Direct configuration=    75
   0.00000000  0.00000000  0.50000000
   0.68877960  0.75046483  0.73884853
   0.00182414  0.66878375  0.38312614
  -0.24955283  0.07303569  0.62075346
Direct configuration=    76
   0.00000000  0.00000000  0.50000000
   0.68877901  0.75046313  0.73884625
   0.00182488  0.66877250  0.38312392
  -0.24955056  0.07303660  0.62075304
Direct configuration=    77
   0.00000000  0.00000000  0.50000000
   0.68877781  0.75045972  0.73884170
   0.00182635  0.66875002  0.38311949
  -0.24954603  0.07303840  0.62075222
Direct configuration=    78
   0.00000000  0.00000000  0.50000000
   0.68877543  0.75045291  0.73883258
   0.00182930  0.66870505  0.38311062
  -0.24953696  0.07304202  0.62075056
Direct configuration=    79
   0.00000000  0.00000000  0.50000000
   0.68877066  0.75043930  0.73881436
   0.00183519  0.66861510  0.38309289
  -0.24951884  0.07304926  0.62074726
Direct configuration=    80
   0.00000000  0.00000000  0.50000000
   0.68876111  0.75041206  0.73877790
   0.00184698  0.66843522  0.38305744
  -0.24948258  0.07306373  0.62074065
Direct configuration=    81
   0.00000000  0.00000000  0.50000000
   0.68874202  0.75035758  0.73870499
   0.00187055  0.66807545  0.38298652
  -0.24941007  0.07309267  0.62072744
Direct configuration=    82
   0.00000000  0.00000000  0.50000000
   0.68870385  0.75024864  0.73855917
   0.00191770  0.66735591  0.38284469
  -0.24926505  0.07315055  0.62070101
Direct configuration=    83
   0.00000000  0.00000000  0.50000000
   0.68862750  0.75003074  0.73826752
   0.00201200  0.66591683  0.38256103
  -0.24897501  0.07326631  0.62064815
Direct configuration=    84
   0.00000000  0.00000000  0.50000000
   0.68847479  0.74959494  0.73768423
   0.00220060  0.66303866  0.38199371
  -0.24839493  0.07349783  0.62054244
Direct configuration=    85
   0.00000000  0.00000000  0.50000000
   0.68816939  0.74872336  0.73651765
   0.00257779  0.65728233  0.38085907
  -0.24723476  0.07396087  0.62033100
Direct configuration=    86
   0.00000000  0.00000000  0.50000000
   0.68754152  0.74258818  0.73599075
   0.00335515  0.64885750  0.38047783
  -0.24436448  0.07878557  0.61821052
Direct configuration=    87
   0.00000000  0.00000000  0.50000000
   0.68767127  0.74385610  0.73609964
   0.00319450  0.65059861  0.38055662
  -0.24495766  0.07778848  0.61864875
Direct configuration=    88
   0.00000000  0.00000000  0.50000000
   0.68765706  0.73856559  0.73547295
   0.00381095  0.64525765  0.38133667
  -0.24479489  0.08242185  0.61848730
Direct configuration=    89
   0.00000000  0.00000000  0.50000000
   0.68761675  0.72355518  0.73369489
   0.00555997  0.63010410  0.38354988
  -0.24433306  0.09556780  0.61802924
Direct configuration=    90
   0.00000000  0.00000000  0.50000000
   0.68753611  0.69353436  0.73013875
   0.00905800  0.59979699  0.38797628
  -0.24340940  0.12185971  0.61711313
Direct configuration=    91
   0.00000000  0.00000000  0.50000000
   0.68758739  0.71262584  0.73240025
   0.00683346  0.61907053  0.38516135
  -0.24399680  0.10513960  0.61769572
Direct configuration=    92
   0.00000000  0.00000000  0.50000000
   0.68764869  0.70745671  0.73201229
   0.00741345  0.61273570  0.38529616
  -0.24439127  0.11001071  0.61787113
Direct configuration=    93
   0.00000000  0.00000000  0.50000000
   0.68783260  0.69194932  0.73084841
   0.00915343  0.59373119  0.38570059
  -0.24557469  0.12462405  0.61839736
Direct configuration=    94
   0.00000000  0.00000000  0.50000000
   0.68820041  0.66093455  0.72852065
   0.01263339  0.55572216  0.38650945
  -0.24794153  0.15385073  0.61944982
Direct configuration=    95
   0.00000000  0.00000000  0.50000000
   0.68790812  0.68558053  0.73037041
   0.00986803  0.58592614  0.38586668
  -0.24606072  0.13062566  0.61861348
Direct configuration=    96
   0.00000000  0.00000000  0.50000000
   0.68786395  0.67834452  0.73042160
   0.01077737  0.57546866  0.38561108
  -0.24632500  0.13758110  0.61831194
Direct configuration=    97
   0.00000000  0.00000000  0.50000000
   0.68779101  0.66639682  0.73050614
   0.01227881  0.55820186  0.38518905
  -0.24676138  0.14906554  0.61781406
Direct configuration=    98
   0.00000000  0.00000000  0.50000000
   0.68775622  0.66069775  0.73054646
   0.01299501  0.54996556  0.38498774
  -0.24696953  0.15454363  0.61757657
Direct configuration=    99
   0.00000000  0.00000000  0.50000000
   0.68775046  0.65975471  0.73055314
   0.01311352  0.54860269  0.38495443
  -0.24700397  0.15545010  0.61753728
Direct configuration=   100
   0.00000000  0.00000000  0.50000000
   0.68775752  0.65964150  0.73088581
   0.01351919  0.54464934  0.38497852
  -0.24795657  0.15664236  0.61777912
Direct configuration=   101
   0.00000000  0.00000000  0.50000000
   0.68777868  0.65930188  0.73188384
   0.01473622  0.53278928  0.38505078
  -0.25081438  0.16021914  0.61850466
Direct configuration=   102
   0.00000000  0.00000000  0.50000000
   0.68782101  0.65862263  0.73387989
   0.01717027  0.50906916  0.38519530
  -0.25652999  0.16737271  0.61995572
Direct configuration=   103
   0.00000000  0.00000000  0.50000000
   0.68779520  0.65903683  0.73266273
   0.01568602  0.52353335  0.38510717
  -0.25304469  0.16301057  0.61907088
Direct configuration=   104
   0.00000000  0.00000000  0.50000000
   0.68792822  0.66005814  0.73319176
   0.01619340  0.51825891  0.38526182
  -0.25378813  0.16336846  0.61889790
Direct configuration=   105
   0.00000000  0.00000000  0.50000000
   0.68800436  0.66064271  0.73349456
   0.01648381  0.51523996  0.38535034
  -0.25421365  0.16357330  0.61879888
Direct configuration=   106
   0.00000000  0.00000000  0.50000000
   0.68802258  0.66078258  0.73356701
   0.01655330  0.51451760  0.38537152
  -0.25431546  0.16362231  0.61877519
Direct configuration=   107
   0.00000000  0.00000000  0.50000000
   0.68831084  0.66189290  0.73349724
   0.01679933  0.51239397  0.38554621
  -0.25456591  0.16324397  0.61876525
Direct configuration=   108
   0.00000000  0.00000000  0.50000000
   0.68917563  0.66522384  0.73328794
   0.01753742  0.50602307  0.38607029
  -0.25531725  0.16210894  0.61873541
Direct configuration=   109
   0.00000000  0.00000000  0.50000000
   0.69090521  0.67188572  0.73286933
   0.01901361  0.49328128  0.38711844
  -0.25681993  0.15983887  0.61867573
Direct configuration=   110
   0.00000000  0.00000000  0.50000000
   0.68979574  0.66761232  0.73313785
   0.01806668  0.50145475  0.38644609
  -0.25585601  0.16129505  0.61871401
Direct configuration=   111
   0.00000000  0.00000000  0.50000000
   0.69063877  0.67035593  0.73287397
   0.01859339  0.49774835  0.38625966
  -0.25605275  0.15996139  0.61858154
Direct configuration=   112
   0.00000000  0.00000000  0.50000000
   0.69222430  0.67551598  0.73237768
   0.01958400  0.49077750  0.38590905
  -0.25642277  0.15745310  0.61833240
Direct configuration=   113
   0.00000000  0.00000000  0.50000000
   0.69260820  0.67619463  0.73236222
   0.01981926  0.49068778  0.38583547
  -0.25680327  0.15762615  0.61850655
Direct configuration=   114
   0.00000000  0.00000000  0.50000000
   0.69244731  0.67591022  0.73236870
   0.01972067  0.49072538  0.38586631
  -0.25664381  0.15755363  0.61843357
